<?xml version="1.0"?>
<VTKFile type="UnstructuredGrid"  version="0.1"  >
<UnstructuredGrid>
<Piece  NumberOfPoints="4225" NumberOfCells="8192">
<Points>
<DataArray  type="Float64"  NumberOfComponents="3"  format="ascii">0 0 0  0.015625 0 0  0.03125 0 0  0.046875 0 0  0.0625 0 0  0.078125 0 0  0.09375 0 0  0.109375 0 0  0.125 0 0  0.140625 0 0  0.15625 0 0  0.171875 0 0  0.1875 0 0  0.203125 0 0  0.21875 0 0  0.234375 0 0  0.25 0 0  0.265625 0 0  0.28125 0 0  0.296875 0 0  0.3125 0 0  0.328125 0 0  0.34375 0 0  0.359375 0 0  0.375 0 0  0.390625 0 0  0.40625 0 0  0.421875 0 0  0.4375 0 0  0.453125 0 0  0.46875 0 0  0.484375 0 0  0.5 0 0  0.515625 0 0  0.53125 0 0  0.546875 0 0  0.5625 0 0  0.578125 0 0  0.59375 0 0  0.609375 0 0  0.625 0 0  0.640625 0 0  0.65625 0 0  0.671875 0 0  0.6875 0 0  0.703125 0 0  0.71875 0 0  0.734375 0 0  0.75 0 0  0.765625 0 0  0.78125 0 0  0.796875 0 0  0.8125 0 0  0.828125 0 0  0.84375 0 0  0.859375 0 0  0.875 0 0  0.890625 0 0  0.90625 0 0  0.921875 0 0  0.9375 0 0  0.953125 0 0  0.96875 0 0  0.984375 0 0  1 0 0  0 0.015625 0  0.015625 0.015625 0  0.03125 0.015625 0  0.046875 0.015625 0  0.0625 0.015625 0  0.078125 0.015625 0  0.09375 0.015625 0  0.109375 0.015625 0  0.125 0.015625 0  0.140625 0.015625 0  0.15625 0.015625 0  0.171875 0.015625 0  0.1875 0.015625 0  0.203125 0.015625 0  0.21875 0.015625 0  0.234375 0.015625 0  0.25 0.015625 0  0.265625 0.015625 0  0.28125 0.015625 0  0.296875 0.015625 0  0.3125 0.015625 0  0.328125 0.015625 0  0.34375 0.015625 0  0.359375 0.015625 0  0.375 0.015625 0  0.390625 0.015625 0  0.40625 0.015625 0  0.421875 0.015625 0  0.4375 0.015625 0  0.453125 0.015625 0  0.46875 0.015625 0  0.484375 0.015625 0  0.5 0.015625 0  0.515625 0.015625 0  0.53125 0.015625 0  0.546875 0.015625 0  0.5625 0.015625 0  0.578125 0.015625 0  0.59375 0.015625 0  0.609375 0.015625 0  0.625 0.015625 0  0.640625 0.015625 0  0.65625 0.015625 0  0.671875 0.015625 0  0.6875 0.015625 0  0.703125 0.015625 0  0.71875 0.015625 0  0.734375 0.015625 0  0.75 0.015625 0  0.765625 0.015625 0  0.78125 0.015625 0  0.796875 0.015625 0  0.8125 0.015625 0  0.828125 0.015625 0  0.84375 0.015625 0  0.859375 0.015625 0  0.875 0.015625 0  0.890625 0.015625 0  0.90625 0.015625 0  0.921875 0.015625 0  0.9375 0.015625 0  0.953125 0.015625 0  0.96875 0.015625 0  0.984375 0.015625 0  1 0.015625 0  0 0.03125 0  0.015625 0.03125 0  0.03125 0.03125 0  0.046875 0.03125 0  0.0625 0.03125 0  0.078125 0.03125 0  0.09375 0.03125 0  0.109375 0.03125 0  0.125 0.03125 0  0.140625 0.03125 0  0.15625 0.03125 0  0.171875 0.03125 0  0.1875 0.03125 0  0.203125 0.03125 0  0.21875 0.03125 0  0.234375 0.03125 0  0.25 0.03125 0  0.265625 0.03125 0  0.28125 0.03125 0  0.296875 0.03125 0  0.3125 0.03125 0  0.328125 0.03125 0  0.34375 0.03125 0  0.359375 0.03125 0  0.375 0.03125 0  0.390625 0.03125 0  0.40625 0.03125 0  0.421875 0.03125 0  0.4375 0.03125 0  0.453125 0.03125 0  0.46875 0.03125 0  0.484375 0.03125 0  0.5 0.03125 0  0.515625 0.03125 0  0.53125 0.03125 0  0.546875 0.03125 0  0.5625 0.03125 0  0.578125 0.03125 0  0.59375 0.03125 0  0.609375 0.03125 0  0.625 0.03125 0  0.640625 0.03125 0  0.65625 0.03125 0  0.671875 0.03125 0  0.6875 0.03125 0  0.703125 0.03125 0  0.71875 0.03125 0  0.734375 0.03125 0  0.75 0.03125 0  0.765625 0.03125 0  0.78125 0.03125 0  0.796875 0.03125 0  0.8125 0.03125 0  0.828125 0.03125 0  0.84375 0.03125 0  0.859375 0.03125 0  0.875 0.03125 0  0.890625 0.03125 0  0.90625 0.03125 0  0.921875 0.03125 0  0.9375 0.03125 0  0.953125 0.03125 0  0.96875 0.03125 0  0.984375 0.03125 0  1 0.03125 0  0 0.046875 0  0.015625 0.046875 0  0.03125 0.046875 0  0.046875 0.046875 0  0.0625 0.046875 0  0.078125 0.046875 0  0.09375 0.046875 0  0.109375 0.046875 0  0.125 0.046875 0  0.140625 0.046875 0  0.15625 0.046875 0  0.171875 0.046875 0  0.1875 0.046875 0  0.203125 0.046875 0  0.21875 0.046875 0  0.234375 0.046875 0  0.25 0.046875 0  0.265625 0.046875 0  0.28125 0.046875 0  0.296875 0.046875 0  0.3125 0.046875 0  0.328125 0.046875 0  0.34375 0.046875 0  0.359375 0.046875 0  0.375 0.046875 0  0.390625 0.046875 0  0.40625 0.046875 0  0.421875 0.046875 0  0.4375 0.046875 0  0.453125 0.046875 0  0.46875 0.046875 0  0.484375 0.046875 0  0.5 0.046875 0  0.515625 0.046875 0  0.53125 0.046875 0  0.546875 0.046875 0  0.5625 0.046875 0  0.578125 0.046875 0  0.59375 0.046875 0  0.609375 0.046875 0  0.625 0.046875 0  0.640625 0.046875 0  0.65625 0.046875 0  0.671875 0.046875 0  0.6875 0.046875 0  0.703125 0.046875 0  0.71875 0.046875 0  0.734375 0.046875 0  0.75 0.046875 0  0.765625 0.046875 0  0.78125 0.046875 0  0.796875 0.046875 0  0.8125 0.046875 0  0.828125 0.046875 0  0.84375 0.046875 0  0.859375 0.046875 0  0.875 0.046875 0  0.890625 0.046875 0  0.90625 0.046875 0  0.921875 0.046875 0  0.9375 0.046875 0  0.953125 0.046875 0  0.96875 0.046875 0  0.984375 0.046875 0  1 0.046875 0  0 0.0625 0  0.015625 0.0625 0  0.03125 0.0625 0  0.046875 0.0625 0  0.0625 0.0625 0  0.078125 0.0625 0  0.09375 0.0625 0  0.109375 0.0625 0  0.125 0.0625 0  0.140625 0.0625 0  0.15625 0.0625 0  0.171875 0.0625 0  0.1875 0.0625 0  0.203125 0.0625 0  0.21875 0.0625 0  0.234375 0.0625 0  0.25 0.0625 0  0.265625 0.0625 0  0.28125 0.0625 0  0.296875 0.0625 0  0.3125 0.0625 0  0.328125 0.0625 0  0.34375 0.0625 0  0.359375 0.0625 0  0.375 0.0625 0  0.390625 0.0625 0  0.40625 0.0625 0  0.421875 0.0625 0  0.4375 0.0625 0  0.453125 0.0625 0  0.46875 0.0625 0  0.484375 0.0625 0  0.5 0.0625 0  0.515625 0.0625 0  0.53125 0.0625 0  0.546875 0.0625 0  0.5625 0.0625 0  0.578125 0.0625 0  0.59375 0.0625 0  0.609375 0.0625 0  0.625 0.0625 0  0.640625 0.0625 0  0.65625 0.0625 0  0.671875 0.0625 0  0.6875 0.0625 0  0.703125 0.0625 0  0.71875 0.0625 0  0.734375 0.0625 0  0.75 0.0625 0  0.765625 0.0625 0  0.78125 0.0625 0  0.796875 0.0625 0  0.8125 0.0625 0  0.828125 0.0625 0  0.84375 0.0625 0  0.859375 0.0625 0  0.875 0.0625 0  0.890625 0.0625 0  0.90625 0.0625 0  0.921875 0.0625 0  0.9375 0.0625 0  0.953125 0.0625 0  0.96875 0.0625 0  0.984375 0.0625 0  1 0.0625 0  0 0.078125 0  0.015625 0.078125 0  0.03125 0.078125 0  0.046875 0.078125 0  0.0625 0.078125 0  0.078125 0.078125 0  0.09375 0.078125 0  0.109375 0.078125 0  0.125 0.078125 0  0.140625 0.078125 0  0.15625 0.078125 0  0.171875 0.078125 0  0.1875 0.078125 0  0.203125 0.078125 0  0.21875 0.078125 0  0.234375 0.078125 0  0.25 0.078125 0  0.265625 0.078125 0  0.28125 0.078125 0  0.296875 0.078125 0  0.3125 0.078125 0  0.328125 0.078125 0  0.34375 0.078125 0  0.359375 0.078125 0  0.375 0.078125 0  0.390625 0.078125 0  0.40625 0.078125 0  0.421875 0.078125 0  0.4375 0.078125 0  0.453125 0.078125 0  0.46875 0.078125 0  0.484375 0.078125 0  0.5 0.078125 0  0.515625 0.078125 0  0.53125 0.078125 0  0.546875 0.078125 0  0.5625 0.078125 0  0.578125 0.078125 0  0.59375 0.078125 0  0.609375 0.078125 0  0.625 0.078125 0  0.640625 0.078125 0  0.65625 0.078125 0  0.671875 0.078125 0  0.6875 0.078125 0  0.703125 0.078125 0  0.71875 0.078125 0  0.734375 0.078125 0  0.75 0.078125 0  0.765625 0.078125 0  0.78125 0.078125 0  0.796875 0.078125 0  0.8125 0.078125 0  0.828125 0.078125 0  0.84375 0.078125 0  0.859375 0.078125 0  0.875 0.078125 0  0.890625 0.078125 0  0.90625 0.078125 0  0.921875 0.078125 0  0.9375 0.078125 0  0.953125 0.078125 0  0.96875 0.078125 0  0.984375 0.078125 0  1 0.078125 0  0 0.09375 0  0.015625 0.09375 0  0.03125 0.09375 0  0.046875 0.09375 0  0.0625 0.09375 0  0.078125 0.09375 0  0.09375 0.09375 0  0.109375 0.09375 0  0.125 0.09375 0  0.140625 0.09375 0  0.15625 0.09375 0  0.171875 0.09375 0  0.1875 0.09375 0  0.203125 0.09375 0  0.21875 0.09375 0  0.234375 0.09375 0  0.25 0.09375 0  0.265625 0.09375 0  0.28125 0.09375 0  0.296875 0.09375 0  0.3125 0.09375 0  0.328125 0.09375 0  0.34375 0.09375 0  0.359375 0.09375 0  0.375 0.09375 0  0.390625 0.09375 0  0.40625 0.09375 0  0.421875 0.09375 0  0.4375 0.09375 0  0.453125 0.09375 0  0.46875 0.09375 0  0.484375 0.09375 0  0.5 0.09375 0  0.515625 0.09375 0  0.53125 0.09375 0  0.546875 0.09375 0  0.5625 0.09375 0  0.578125 0.09375 0  0.59375 0.09375 0  0.609375 0.09375 0  0.625 0.09375 0  0.640625 0.09375 0  0.65625 0.09375 0  0.671875 0.09375 0  0.6875 0.09375 0  0.703125 0.09375 0  0.71875 0.09375 0  0.734375 0.09375 0  0.75 0.09375 0  0.765625 0.09375 0  0.78125 0.09375 0  0.796875 0.09375 0  0.8125 0.09375 0  0.828125 0.09375 0  0.84375 0.09375 0  0.859375 0.09375 0  0.875 0.09375 0  0.890625 0.09375 0  0.90625 0.09375 0  0.921875 0.09375 0  0.9375 0.09375 0  0.953125 0.09375 0  0.96875 0.09375 0  0.984375 0.09375 0  1 0.09375 0  0 0.109375 0  0.015625 0.109375 0  0.03125 0.109375 0  0.046875 0.109375 0  0.0625 0.109375 0  0.078125 0.109375 0  0.09375 0.109375 0  0.109375 0.109375 0  0.125 0.109375 0  0.140625 0.109375 0  0.15625 0.109375 0  0.171875 0.109375 0  0.1875 0.109375 0  0.203125 0.109375 0  0.21875 0.109375 0  0.234375 0.109375 0  0.25 0.109375 0  0.265625 0.109375 0  0.28125 0.109375 0  0.296875 0.109375 0  0.3125 0.109375 0  0.328125 0.109375 0  0.34375 0.109375 0  0.359375 0.109375 0  0.375 0.109375 0  0.390625 0.109375 0  0.40625 0.109375 0  0.421875 0.109375 0  0.4375 0.109375 0  0.453125 0.109375 0  0.46875 0.109375 0  0.484375 0.109375 0  0.5 0.109375 0  0.515625 0.109375 0  0.53125 0.109375 0  0.546875 0.109375 0  0.5625 0.109375 0  0.578125 0.109375 0  0.59375 0.109375 0  0.609375 0.109375 0  0.625 0.109375 0  0.640625 0.109375 0  0.65625 0.109375 0  0.671875 0.109375 0  0.6875 0.109375 0  0.703125 0.109375 0  0.71875 0.109375 0  0.734375 0.109375 0  0.75 0.109375 0  0.765625 0.109375 0  0.78125 0.109375 0  0.796875 0.109375 0  0.8125 0.109375 0  0.828125 0.109375 0  0.84375 0.109375 0  0.859375 0.109375 0  0.875 0.109375 0  0.890625 0.109375 0  0.90625 0.109375 0  0.921875 0.109375 0  0.9375 0.109375 0  0.953125 0.109375 0  0.96875 0.109375 0  0.984375 0.109375 0  1 0.109375 0  0 0.125 0  0.015625 0.125 0  0.03125 0.125 0  0.046875 0.125 0  0.0625 0.125 0  0.078125 0.125 0  0.09375 0.125 0  0.109375 0.125 0  0.125 0.12
[...]
<PointData  Scalars="f_6"> 
<DataArray  type="Float64"  Name="f_6"  format="ascii">-2.0000000000000000e+00  -1.9531250000000000e+00  -1.9062500000000000e+00  -1.8593750000000000e+00  -1.8125000000000000e+00  -1.7656250000000000e+00  -1.7187500000000000e+00  -1.6718750000000000e+00  -1.6250000000000000e+00  -1.5781250000000000e+00  -1.5312500000000000e+00  -1.4843750000000000e+00  -1.4375000000000000e+00  -1.3906250000000000e+00  -1.3437500000000000e+00  -1.2968750000000000e+00  -1.2500000000000000e+00  -1.2031250000000000e+00  -1.1562500000000000e+00  -1.1093750000000000e+00  -1.0625000000000000e+00  -1.0156250000000000e+00  -9.6875000000000000e-01  -9.2187500000000000e-01  -8.7500000000000000e-01  -8.2812500000000000e-01  -7.8125000000000000e-01  -7.3437500000000000e-01  -6.8750000000000000e-01  -6.4062500000000000e-01  -5.9375000000000000e-01  -5.4687500000000000e-01  -5.0000000000000000e-01  -4.5312500000000000e-01  -4.0625000000000000e-01  -3.5937500000000000e-01  -3.1250000000000000e-01  -2.6562500000000000e-01  -2.1875000000000000e-01  -1.7187500000000000e-01  -1.2500000000000000e-01  -7.8125000000000000e-02  -3.1250000000000000e-02  1.5625000000000000e-02  6.2500000000000000e-02  1.0937500000000000e-01  1.5625000000000000e-01  2.0312500000000000e-01  2.5000000000000000e-01  2.9687500000000000e-01  3.4375000000000000e-01  3.9062500000000000e-01  4.3750000000000000e-01  4.8437500000000000e-01  5.3125000000000000e-01  5.7812500000000000e-01  6.2500000000000000e-01  6.7187500000000000e-01  7.1875000000000000e-01  7.6562500000000000e-01  8.1250000000000000e-01  8.5937500000000000e-01  9.0625000000000000e-01  9.5312500000000000e-01  1.0000000000000000e+00  -2.0000000000000000e+00  -1.9132717063760292e+00  -1.8332348829159324e+00  -1.7584627078681099e+00  -1.6880331384975593e+00  -1.6212763318430712e+00  -1.5576726853758949e+00  -1.4968035086476450e+00  -1.4383233199264172e+00  -1.3819424373902971e+00  -1.3274151183416452e+00  -1.2745310018559080e+00  -1.2231086780152374e+00  -1.1729907110105593e+00  -1.1240397029478932e+00  -1.0761351291459609e+00  -1.0291707608727476e+00  -9.8305254478085102e-01  -9.3769684340778015e-01  -8.9302896536026355e-01  -8.4898193143083422e-01  -8.0549543652032207e-01  -7.6251497863025330e-01  -7.1999113668931025e-01  -6.7787898988840933e-01  -6.3613768437418161e-01  -5.9473017188335886e-01  -5.5362317408300787e-01  -5.1278746790296625e-01  -4.7219862093257503e-01  -4.3183824230241080e-01  -3.9169542007015584e-01  -3.5176695297801291e-01  -3.1205369570356517e-01  -2.7255360538423756e-01  -2.3327073981305080e-01  -1.9426693385553048e-01  -1.5564960392825045e-01  -1.1735347665126783e-01  -7.9135952181409869e-02  -4.4581027718808446e-02  -1.1929411759919737e-02  2.1762060453251408e-02  5.7385046515914653e-02  9.6133368280334627e-02  1.3800960452855643e-01  1.8130770679286687e-01  2.2537321683269873e-01  2.6991170915332746e-01  3.1477042096304153e-01  3.5986039702677280e-01  4.0512504236303198e-01  4.5052584261125400e-01  4.9603518424530307e-01  5.4163242562920322e-01  5.8730159340027743e-01  6.3302995345315827e-01  6.7880708189964456e-01  7.2462423633851947e-01  7.7047391489324846e-01  8.1634953644468566e-01  8.6224520094716506e-01  9.0815550338996587e-01  9.5407538368152711e-01  1.0000000000000000e+00  -2.0000000000000000e+00  -1.8765486816016730e+00  -1.7679241703183237e+00  -1.6707165465698501e+00  -1.5825758950468241e+00  -1.5018037734182530e+00  -1.4271253670276429e+00  -1.3575558214235124e+00  -1.2923171456768550e+00  -1.2307838059454339e+00  -1.1724455446945754e+00  -1.1168810778670537e+00  -1.0637389604047565e+00  -1.0127233451778057e+00  -9.6358318125948716e-01  -9.1610388909624652e-01  -8.7010085650718361e-01  -8.2541429712131387e-01  -7.8190514435321179e-01  -7.3945174400563740e-01  -6.9794717200729217e-01  -6.5729705009142958e-01  -6.1741776765285472e-01  -5.7823504693453687e-01  -5.3968281438350141e-01  -5.0170236679135471e-01  -4.6424185216769676e-01  -4.2725613328892992e-01  -3.9070718488738670e-01  -3.5456530631495420e-01  -3.1881155845836417e-01  -2.8344166133865467e-01  -2.4847012879054931e-01  -2.1392848880127813e-01  -1.7984523420808302e-01  -1.4623204827982328e-01  -1.1324381700465865e-01  -8.1393966945970481e-02  -5.0934130331743620e-02  -2.3026675783494398e-02  3.0222627843163089e-03  2.9784043616767838e-02  5.8753711510750595e-02  9.0820043566104208e-02  1.2663882207686736e-01  1.6522234304102407e-01  2.0559800581021229e-01  2.4714845138460056e-01  2.8950319881756953e-01  3.3243457767206608e-01  3.7579612478101770e-01  4.1948892981410113e-01  4.6344314383668112e-01  5.0760746874075502e-01  5.5194292487123264e-01  5.9641899451874802e-01  6.4101113851271174e-01  6.8569913780690028e-01  7.3046594856118519e-01  7.7529688678978836e-01  8.2017902993832970e-01  8.6510076395400881e-01  9.1005142893117119e-01  9.5502103133614180e-01  1.0000000000000000e+00  -2.0000000000000000e+00  -1.8423639632310913e+00  -1.7089827550090377e+00  -1.5935589112382307e+00  -1.4918765413135444e+00  -1.4009910274043313e+00  -1.3187711201605352e+00  -1.2436281122428641e+00  -1.1743484540395626e+00  -1.1099860719996828e+00  -1.0497906059103346e+00  -9.9315809735617466e-01  -9.3959619853655363e-01  -8.8869905905853419e-01  -8.4012883596199783e-01  -7.9360184311112225e-01  -7.4887801799427700e-01  -7.0575280486583014e-01  -6.6405082781725977e-01  -6.2362091102308281e-01  -5.8433212932091338e-01  -5.4607066116969327e-01  -5.0873728127886797e-01  -4.7224538073912226e-01  -4.3651944426095085e-01  -4.0149395120965159e-01  -3.6711270431480064e-01  -3.3332864031228310e-01  -3.0010427702989745e-01  -2.6741318045137757e-01  -2.3524331780851054e-01  -2.0360400143871465e-01  -1.7253885140679817e-01  -1.4214239882983123e-01  -1.1253602640545152e-01  -8.3718004016826303e-02  -5.5709853956623513e-02  -3.0676055193527740e-02  -7.7938814360515359e-03  1.4423727705988213e-02  3.6867758423024789e-02  6.1499635887340344e-02  8.9508574838234115e-02  1.2050259416088421e-01  1.5437953342000654e-01  1.9064293974845997e-01  2.2871352202235765e-01  2.6811938407792180e-01  3.0851805706028423e-01  3.4966856612663533e-01  3.9140059461113091e-01  4.3359140827567377e-01  4.7615033418061437e-01  5.1900862200980313e-01  5.6211281059622442e-01  6.0542032129077039e-01  6.4889646827204039e-01  6.9251238225406031e-01  7.3624353330953274e-01  7.8006865376639023e-01  8.2396893256483628e-01  8.6792739599936952e-01  9.1192841704456851e-01  9.5595731273186868e-01  1.0000000000000000e+00  -2.0000000000000000e+00  -1.8104073599471104e+00  -1.6554679549858629e+00  -1.5251172973447129e+00  -1.4129388290381022e+00  -1.3146278886928724e+00  -1.2271754695390482e+00  -1.1484061869971065e+00  -1.0767027520596530e+00  -1.0108342645782045e+00  -9.4984509472641976e-01  -8.9298059723827505e-01  -8.3963602966034989e-01  -7.8932055358912012e-01  -7.4163131487870826e-01  -6.9623442643261424e-01  -6.5285078337977798e-01  -6.1124532941648735e-01  -5.7121883357304115e-01  -5.3260152522790183e-01  -4.9524812889333786e-01  -4.5903397398463902e-01  -4.2385195062827097e-01  -3.8961015526051063e-01  -3.5623012893837563e-01  -3.2364564179578559e-01  -2.9180201936146954e-01  -2.6065604375676771e-01  -2.3017652813488287e-01  -2.0034587333598347e-01  -1.7116355780604767e-01  -1.4265431901181744e-01  -1.1488931193522449e-01  -8.8052939074845571e-02  -6.2570823024898206e-02  -3.8549197056974391e-02  -1.6774924855664567e-02  3.0977791636725687e-03  2.2723863806507556e-02  4.3104378530149909e-02  6.5127869407830510e-02  8.9838166671334665e-02  1.1727835779396129e-01  1.4730222481919203e-01  1.7973377769381466e-01  2.1425636051045163e-01  2.5049375845283639e-01  2.8809750584444477e-01  3.2678107921901028e-01  3.6632103516305997e-01  4.0654627926119702e-01  4.4732577449684863e-01  4.8855816260029927e-01  5.3016387452161917e-01  5.7207937421309052e-01  6.1425301177606861e-01  6.5664203103061880e-01  6.9921038962776794e-01  7.4192714865649445e-01  7.8476526240140387e-01  8.2770065055525510e-01  8.7071147043406483e-01  9.1377753051586474e-01  9.5687980254676408e-01  1.0000000000000000e+00  -2.0000000000000000e+00  -1.7804816927995628e+00  -1.6066750342879537e+00  -1.4639897220137335e+00  -1.3435825842342135e+00  -1.2397489203371883e+00  -1.1486253240911153e+00  -1.0674914006455856e+00  -9.9436952711952986e-01  -9.2778341333920666e-01  -8.6660612252031477e-01  -8.0996089292243345e-01  -7.5715438492217346e-01  -7.0763053511746232e-01  -6.6093790509829631e-01  -6.1670610461945508e-01  -5.7462846318641547e-01  -5.3444909772185101e-01  -4.9595313534706359e-01  -4.5895924414948769e-01  -4.2331388490946414e-01  -3.8888687336046790e-01  -3.5556796727400569e-01  -3.2326428696086396e-01  -2.9189845722332253e-01  -2.6140743267447042e-01  -2.3174203409066335e-01  -2.0286726386906978e-01  -1.7476348288199939e-01  -1.4742863058171896e-01  -1.2088215844421744e-01  -9.5172630132420458e-02  -7.0395078613095158e-02  -4.6678769149343595e-02  -2.5717663722244904e-02  -6.8030108253252300e-03  1.1133833065495652e-02  2.8773744260805794e-02  4.7485616779554485e-02  6.8146253810042884e-02  9.0701174006812713e-02  1.1544680359620650e-01  1.4246446484708439e-01  1.7169416962810788e-01  2.0299699202560842e-01  2.3615496614669557e-01  2.7090764543409163e-01  3.0699580162800999e-01  3.4418771880825227e-01  3.8228821604539720e-01  4.2113771277374856e-01  4.6060724785022406e-01  5.0059266720211515e-01  5.4100933926328376e-01  5.8178779995844987e-01  6.2287032056979463e-01  6.6420825444659826e-01  7.0575999656989841e-01  7.4748940928727314e-01  7.8936459662747571e-01  8.3135693682071576e-01  8.7344030466577027e-01  9.1559043203806179e-01  9.5778436693932323e-01  1.0000000000000000e+00  -2.0000000000000000e+00  -1.7524421266893229e+00  -1.5620516739432575e+00  -1.4090967518802981e+00  -1.2821765018985498e+00  -1.1741964963070473e+00  -1.0804857870409883e+00  -9.9782948833577023e-01  -9.2393425454764933e-01  -8.5711525657423382e-01  -7.9610392450343725e-01  -7.3992507042899347e-01  -6.8781565950785239e-01  -6.3916953705923074e-01  -5.9349886592904466e-01  -5.5040663304865600e-01  -5.0956667727980809e-01  -4.7070894717218026e-01  -4.3360847435429339e-01  -3.9807704214560835e-01  -3.6395685112720844e-01  -3.3111569948993308e-01  -2.9944334680506546e-01  -2.6884884410099685e-01  -2.3925871579342453e-01  -2.1061599433144784e-01  -1.8288024821987142e-01  -1.5602887876160362e-01  -1.3006004151814626e-01  -1.0499777860996211e-01  -8.0901406859329159e-02  -5.7886302343880418e-02  -3.6175751345613801e-02  -1.6888044866316402e-02  2.2981590487841162e-04  1.6716029319215842e-02  3.3445771147414594e-02  5.1043492141686131e-02  7.0298605240861692e-02  9.1293845923654415e-02  1.1408376921317089e-01  1.3878340885959439e-01  1.6543852837006195e-01  1.9401299682054698e-01  2.2440505463381571e-01  2.5645886661663053e-01  2.8998605550882445e-01  3.2479033642525185e-01  3.6068577834059162e-01  3.9750639743652849e-01  4.3510910793817592e-01  4.7337283692818366e-01  5.1219591909465334e-01  5.5149301537095086e-01  5.9119216578763034e-01  6.3123221609806246e-01  6.7156066961608119e-01  7.1213193291795518e-01  7.5290589529522278e-01  7.9384677800051040e-01  8.3492219543436097e-01  8.7610237937023849e-01  9.1735952603128901e-01  9.5866723317246716e-01  1.0000000000000000e+00  -2.0000000000000000e+00  -1.7261714328639108e+00  -1.5211497531887286e+00  -1.3595872785067360e+00  -1.2274702015262993e+00  -1.1163572623955960e+00  -1.0208278173131566e+00  -9.3722411702426078e-01  -8.6297863285236143e-01  -7.9623027623923748e-01  -7.3559367116977770e-01  -6.8001430349561465e-01  -6.2867421357150977e-01  -5.8092866506494922e-01  -5.3626247067868038e-01  -4.9425917722491297e-01  -4.5457889388843875e-01  -4.1694207456528515e-01  -3.8111749771677839e-01  -3.4691327361023777e-01  -3.1417008811015595e-01  -2.8275614475197980e-01  -2.5256344150784305e-01  -2.2350514988497003e-01  -1.9551398823241942e-01  -1.6854165557828119e-01  -1.4255969684423189e-01  -1.1756263507627211e-01  -9.3574729320580793e-02  -7.0662908596684809e-02  -4.8962367171551995e-02  -2.8784625900354018e-02  -1.0826054028329242e-02  5.2429789125886909e-03  2.0512951315493664e-02  3.6308682581699725e-02  5.3380041894889069e-02  7.1655847917662455e-02  9.1371466118551778e-02  1.1264675543054219e-01  1.3555664806262210e-01  1.6016453425893820e-01  1.8649324295302205e-01  2.1451423465020236e-01  2.4415136307247687e-01  2.7528939017718634e-01  3.0778737355932378e-01  3.4149371022358149e-01  3.7625866069233382e-01  4.1194248742194933e-01  4.4841948461424308e-01  4.8557907282968132e-01  5.2332515687736392e-01  5.6157463733823598e-01  6.0025563172305829e-01  6.3930570841874401e-01  6.7867027500170873e-01  7.1830117019061812e-01  7.5815546097515285e-01  7.9819442464498214e-01  8.3838268754597900e-01  8.7868749134953350e-01  9.1907805954438859e-01  9.5952503971925640e-01  1.0000000000000000e+00  -2.0000000000000000e+00  -1.7015687864330902e+00  -1.4835966141599142e+00  -1.3147768807459588e+00  -1.1784852890148318e+00  -1.0649965097130976e+00  -9.6820174785713464e-01  -8.8404947884587504e-01  -8.0973499206234512e-01  -7.4324840929231184e-01  -6.8310794532828290e-01  -6.2819500540146322e-01  -5.7764820861763333e-01  -5.3079301047914951e-01  -4.8709364108910780e-01  -4.4611948942883800e-01  -4.0752111030824606e-01  -3.7101281036689099e-01  -3.3635984518787754e-01  -3.0336893078921434e-01  -2.7188120528935938e-01  -2.4176706520833477e-01  -2.1292250137730290e-01  -1.8526670784234298e-01  -1.5874087454921734e-01  -1.3330830551105488e-01  -1.0895660301329006e-01  -8.5704062594647648e-02  -6.3615017884367242e-02  -4.2831415575234226e-02  -2.3739682682834974e-02  -6.7590386802400208e-03  8.5811533178467309e-03  2.3257970601620038e-02  3.8349748885691162e-02  5.4625707797200357e-02  7.2109865932779529e-02  9.0828391515522869e-02  1.1088465588514071e-01  1.3236506161734046e-01  1.5533153334783711e-01  1.7982483716051431e-01  2.0585567453288567e-01  2.3339933575476363e-01  2.6239677282870327e-01  2.9275995746031436e-01  3.2438033832770291e-01  3.5713847021741668e-01  3.9091266678321313e-01  4.2558540694469194e-01  4.6104727026716608e-01  4.9719881289893469e-01  5.3395099824688519e-01  5.7122474538157109e-01  6.0895001534762294e-01  6.4706471085214712e-01  6.8551355178139151e-01  7.2424701186765628e-01  7.6322035376978847e-01  8.0239277205828596e-01  8.4172663875503995e-01  8.8118683893752814e-01  9.2074018107747491e-01  9.6035486616017041e-01  1.0000000000000000e+00  -2.0000000000000000e+00  -1.6785442628650296e+00  -1.4490768294563254e+00  -1.2741061902867175e+00  -1.1344425524836499e+00  -1.0191503543627869e+00  -9.2149374726244460e-01  -8.3707243856235014e-01  -7.6287678376629364e-01  -6.9677118902536839e-01  -6.3719410396258525e-01  -5.8297499988961710e-01  -5.3321805447421611e-01  -4.8722564239477234e-01  -4.4444651929990653e-01  -4.0443984935230559e-01  -3.6684970740887379e-01  -3.3138669934375692e-01  -2.9781455007739499e-01  -2.6594025752411998e-01  -2.3560689418249747e-01  -2.0668846715486561e-01  -1.7908648740664734e-01  -1.5272808648852365e-01  -1.2756567885594833e-01  -1.0357841728687424e-01  -8.0776691856398269e-02  -5.9215044383000688e-02  -3.9026433928899880e-02  -2.0635907261843139e-02  -4.3368535540294038e-03  1.0457455206501645e-02  2.4712784641269029e-02  3.9356159138720800e-02  5.5002365828450576e-02  7.1734533788630997e-02  8.9605322523505823e-02  1.0866319632650874e-01  1.2897370428914776e-01  1.5059730180584188e-01  1.7357958655087155e-01  1.9794760650239623e-01  2.2370528226324274e-01  2.5083066100726320e-01  2.7927643502725813e-01  3.0897332850766507e-01  3.3983555207375693e-01  3.7176716553516970e-01  4.0466812927841012e-01  4.3843920330643915e-01  4.7298537661079454e-01  5.0821791025200624e-01  5.4405527782967078e-01  5.8042333059354045e-01  6.1725497343371527e-01  6.5448956786083090e-01  6.9207220940405390e-01  7.2995297172882700e-01  7.6808617017805891e-01  8.0642967106333319e-01  8.4494425647836680e-01  8.8359304456806376e-01  9.2234095966781282e-01  9.6115424384395054e-01  1.0000000000000000e+00  -2.0000000000000000e+00  -1.6570159583299768e+00  -1.4173199401800409e+00  -1.2371118737542037e+00  -1.0947119459011168e+00  -9.7805336554248623e-01  -8.7983162978272389e-01  -7.9533813453015034e-01  -7.2138610624839250e-01  -6.5573351823103965e-01  -5.9675262200723789e-01  -5.4323065310903929e-01  -4.9424439123067554e-01  -4.4907832596896180e-01  -4.0716963126272560e-01  -3.6807021090672837e-01  -3.3141995971910271e-01  -2.9692760967227222e-01  -2.6435685438328649e-01  -2.3351626462565622e-01  -2.0425204057647431e-01  -1.7644302437019210e-01  -1.4999770850593699e-01  -1.2485328636471801e-01  -1.0097712194931249e-01  -7.8371367979294684e-02  -5.7082908991319306e-02  -3.7229935304949766e-02  -1.9209569465104041e-02  -3.3223460219979841e-03  1.1075913512956614e-02  2.4989938568943028e-02  3.9284191814015150e-02  5.4451515483543558e-02  7.0569021500759374e-02  8.7704739005367224e-02  1.0591369404610398e-01  1.2524536697785862e-01  1.4574966313909957e-01  1.6747085476600784e-01  1.9044190454741086e-01  2.1468072003495681e-01  2.4018718701042574e-01  2.6694159098378828e-01  2.9490497776540142e-01  3.2402136946933097e-01  3.5422137592448993e-01  3.8542651057109512e-01  4.1755348148881877e-01  4.5051790039186040e-01  4.8423712261756591e-01  5.1863217366862535e-01  5.5362887222625190e-01  5.8915832572920424e-01  6.2515697993286712e-01  6.6156637775340710e-01  6.9833274624516650e-01  7.3540649546553916e-01  7.7274168415028655e-01  8.1029548553862185e-01  8.4802767152702963e-01  8.8590012318854716e-01  9.2387636918176230e-01  9.6192114954781849e-01  1.0000000000000000e+00  -2.0000000000000000e+00  -1.6369084003519490e+00  -1.3880917891512370e+00  -1.2034058285761722e+00  -1.0587773584897859e+00  -9.4108866336125885e-01  -8.4252117233299628e-01  -7.5809393714100137e-01  -6.8446691333485543e-01  -6.1930774147062861e-01  -5.6093355495806485e-01  -5.0809712808335905e-01  -4.5985339957006000e-01  -4.1547301703714978e-01  -3.7438456714320378e-01  -3.3613495447416514e-01  -3.0036164240291258e-01  -2.6677288671484717e-01  -2.3513352375867463e-01  -2.0525475862695264e-01  -1.7698697911237821e-01  -1.5021505343302305e-01  -1.2485599340631075e-01  -1.0085947611761333e-01  -7.8212819647280774e-02  -5.6953829960219055e-02  -3.7197264895140407e-02  -1.9270394872973717e-02  -3.5509613313736326e-03  1.0599131057919233e-02  2.4228735815763389e-02  3.8213530254328880e-02  5.2982528562304974e-02  6.8596689480678916e-02  8.5117465685676158e-02  1.0260170668597451e-01  1.2109934767768428e-01  1.4065491439972228e-01  1.6130872652338404e-01  1.8309454957167906e-01  2.0603645683780727e-01  2.3014618207959436e-01  2.5542115475971516e-01  2.8184353815206270e-01  3.0938051558122820e-01  3.3798579567976750e-01  3.6760207158377656e-01  3.9816401933590251e-01  4.2960138571390954e-01  4.6184179415461779e-01  4.9481303979898339e-01  5.2844478957867713e-01  5.6266971167750701e-01  5.9742412016415769e-01  6.3264824281514165e-01  6.6828621697476343e-01  7.0428590235766608e-01  7.4059857973787668e-01  7.7717858541892637e-01  8.1398291541383749e-01  8.5097082090258291e-01  8.8810340747733307e-01  9.2534324432287096e-01  9.6265398516556111e-01  1.0000000000000000e+00  -2.0000000000000000e+00  -1.6181516226093586e+00  -1.3611881412820628e+00  -1.1726598963449806e+00  -1.0262112380737127e+00  -9.0775268305521273e-01  -8.0900192347784783e-01  -7.2473745424481906e-01  -6.5148640192875218e-01  -5.8683953653415177e-01  -5.2906795337396750e-01  -4.7689622869330534e-01  -4.2936187143334564e-01  -3.8572485652049060e-01  -3.4540750727825908e-01  -3.0795347373115434e-01  -2.7299913953751209e-01  -2.4025338325720952e-01  -2.0948314893759584e-01  -1.8050322623984213e-01  -1.5316926738363656e-01  -1.2737355267189340e-01  -1.0304355361429776e-01  -8.0144397534250650e-02  -5.8689447564693367e-02  -3.8773530872018146e-02  -2.0686986655712850e-02  -4.9204680696007660e-03  9.1277241113261968e-03  2.2538274743895324e-02  3.6236117074887962e-02 