<?xml version="1.0"?>
<VTKFile type="UnstructuredGrid"  version="0.1"  >
<UnstructuredGrid>
<Piece  NumberOfPoints="4225" NumberOfCells="8192">
<Points>
<DataArray  type="Float64"  NumberOfComponents="3"  format="ascii">0 0 0  0.015625 0 0  0.03125 0 0  0.046875 0 0  0.0625 0 0  0.078125 0 0  0.09375 0 0  0.109375 0 0  0.125 0 0  0.140625 0 0  0.15625 0 0  0.171875 0 0  0.1875 0 0  0.203125 0 0  0.21875 0 0  0.234375 0 0  0.25 0 0  0.265625 0 0  0.28125 0 0  0.296875 0 0  0.3125 0 0  0.328125 0 0  0.34375 0 0  0.359375 0 0  0.375 0 0  0.390625 0 0  0.40625 0 0  0.421875 0 0  0.4375 0 0  0.453125 0 0  0.46875 0 0  0.484375 0 0  0.5 0 0  0.515625 0 0  0.53125 0 0  0.546875 0 0  0.5625 0 0  0.578125 0 0  0.59375 0 0  0.609375 0 0  0.625 0 0  0.640625 0 0  0.65625 0 0  0.671875 0 0  0.6875 0 0  0.703125 0 0  0.71875 0 0  0.734375 0 0  0.75 0 0  0.765625 0 0  0.78125 0 0  0.796875 0 0  0.8125 0 0  0.828125 0 0  0.84375 0 0  0.859375 0 0  0.875 0 0  0.890625 0 0  0.90625 0 0  0.921875 0 0  0.9375 0 0  0.953125 0 0  0.96875 0 0  0.984375 0 0  1 0 0  0 0.015625 0  0.015625 0.015625 0  0.03125 0.015625 0  0.046875 0.015625 0  0.0625 0.015625 0  0.078125 0.015625 0  0.09375 0.015625 0  0.109375 0.015625 0  0.125 0.015625 0  0.140625 0.015625 0  0.15625 0.015625 0  0.171875 0.015625 0  0.1875 0.015625 0  0.203125 0.015625 0  0.21875 0.015625 0  0.234375 0.015625 0  0.25 0.015625 0  0.265625 0.015625 0  0.28125 0.015625 0  0.296875 0.015625 0  0.3125 0.015625 0  0.328125 0.015625 0  0.34375 0.015625 0  0.359375 0.015625 0  0.375 0.015625 0  0.390625 0.015625 0  0.40625 0.015625 0  0.421875 0.015625 0  0.4375 0.015625 0  0.453125 0.015625 0  0.46875 0.015625 0  0.484375 0.015625 0  0.5 0.015625 0  0.515625 0.015625 0  0.53125 0.015625 0  0.546875 0.015625 0  0.5625 0.015625 0  0.578125 0.015625 0  0.59375 0.015625 0  0.609375 0.015625 0  0.625 0.015625 0  0.640625 0.015625 0  0.65625 0.015625 0  0.671875 0.015625 0  0.6875 0.015625 0  0.703125 0.015625 0  0.71875 0.015625 0  0.734375 0.015625 0  0.75 0.015625 0  0.765625 0.015625 0  0.78125 0.015625 0  0.796875 0.015625 0  0.8125 0.015625 0  0.828125 0.015625 0  0.84375 0.015625 0  0.859375 0.015625 0  0.875 0.015625 0  0.890625 0.015625 0  0.90625 0.015625 0  0.921875 0.015625 0  0.9375 0.015625 0  0.953125 0.015625 0  0.96875 0.015625 0  0.984375 0.015625 0  1 0.015625 0  0 0.03125 0  0.015625 0.03125 0  0.03125 0.03125 0  0.046875 0.03125 0  0.0625 0.03125 0  0.078125 0.03125 0  0.09375 0.03125 0  0.109375 0.03125 0  0.125 0.03125 0  0.140625 0.03125 0  0.15625 0.03125 0  0.171875 0.03125 0  0.1875 0.03125 0  0.203125 0.03125 0  0.21875 0.03125 0  0.234375 0.03125 0  0.25 0.03125 0  0.265625 0.03125 0  0.28125 0.03125 0  0.296875 0.03125 0  0.3125 0.03125 0  0.328125 0.03125 0  0.34375 0.03125 0  0.359375 0.03125 0  0.375 0.03125 0  0.390625 0.03125 0  0.40625 0.03125 0  0.421875 0.03125 0  0.4375 0.03125 0  0.453125 0.03125 0  0.46875 0.03125 0  0.484375 0.03125 0  0.5 0.03125 0  0.515625 0.03125 0  0.53125 0.03125 0  0.546875 0.03125 0  0.5625 0.03125 0  0.578125 0.03125 0  0.59375 0.03125 0  0.609375 0.03125 0  0.625 0.03125 0  0.640625 0.03125 0  0.65625 0.03125 0  0.671875 0.03125 0  0.6875 0.03125 0  0.703125 0.03125 0  0.71875 0.03125 0  0.734375 0.03125 0  0.75 0.03125 0  0.765625 0.03125 0  0.78125 0.03125 0  0.796875 0.03125 0  0.8125 0.03125 0  0.828125 0.03125 0  0.84375 0.03125 0  0.859375 0.03125 0  0.875 0.03125 0  0.890625 0.03125 0  0.90625 0.03125 0  0.921875 0.03125 0  0.9375 0.03125 0  0.953125 0.03125 0  0.96875 0.03125 0  0.984375 0.03125 0  1 0.03125 0  0 0.046875 0  0.015625 0.046875 0  0.03125 0.046875 0  0.046875 0.046875 0  0.0625 0.046875 0  0.078125 0.046875 0  0.09375 0.046875 0  0.109375 0.046875 0  0.125 0.046875 0  0.140625 0.046875 0  0.15625 0.046875 0  0.171875 0.046875 0  0.1875 0.046875 0  0.203125 0.046875 0  0.21875 0.046875 0  0.234375 0.046875 0  0.25 0.046875 0  0.265625 0.046875 0  0.28125 0.046875 0  0.296875 0.046875 0  0.3125 0.046875 0  0.328125 0.046875 0  0.34375 0.046875 0  0.359375 0.046875 0  0.375 0.046875 0  0.390625 0.046875 0  0.40625 0.046875 0  0.421875 0.046875 0  0.4375 0.046875 0  0.453125 0.046875 0  0.46875 0.046875 0  0.484375 0.046875 0  0.5 0.046875 0  0.515625 0.046875 0  0.53125 0.046875 0  0.546875 0.046875 0  0.5625 0.046875 0  0.578125 0.046875 0  0.59375 0.046875 0  0.609375 0.046875 0  0.625 0.046875 0  0.640625 0.046875 0  0.65625 0.046875 0  0.671875 0.046875 0  0.6875 0.046875 0  0.703125 0.046875 0  0.71875 0.046875 0  0.734375 0.046875 0  0.75 0.046875 0  0.765625 0.046875 0  0.78125 0.046875 0  0.796875 0.046875 0  0.8125 0.046875 0  0.828125 0.046875 0  0.84375 0.046875 0  0.859375 0.046875 0  0.875 0.046875 0  0.890625 0.046875 0  0.90625 0.046875 0  0.921875 0.046875 0  0.9375 0.046875 0  0.953125 0.046875 0  0.96875 0.046875 0  0.984375 0.046875 0  1 0.046875 0  0 0.0625 0  0.015625 0.0625 0  0.03125 0.0625 0  0.046875 0.0625 0  0.0625 0.0625 0  0.078125 0.0625 0  0.09375 0.0625 0  0.109375 0.0625 0  0.125 0.0625 0  0.140625 0.0625 0  0.15625 0.0625 0  0.171875 0.0625 0  0.1875 0.0625 0  0.203125 0.0625 0  0.21875 0.0625 0  0.234375 0.0625 0  0.25 0.0625 0  0.265625 0.0625 0  0.28125 0.0625 0  0.296875 0.0625 0  0.3125 0.0625 0  0.328125 0.0625 0  0.34375 0.0625 0  0.359375 0.0625 0  0.375 0.0625 0  0.390625 0.0625 0  0.40625 0.0625 0  0.421875 0.0625 0  0.4375 0.0625 0  0.453125 0.0625 0  0.46875 0.0625 0  0.484375 0.0625 0  0.5 0.0625 0  0.515625 0.0625 0  0.53125 0.0625 0  0.546875 0.0625 0  0.5625 0.0625 0  0.578125 0.0625 0  0.59375 0.0625 0  0.609375 0.0625 0  0.625 0.0625 0  0.640625 0.0625 0  0.65625 0.0625 0  0.671875 0.0625 0  0.6875 0.0625 0  0.703125 0.0625 0  0.71875 0.0625 0  0.734375 0.0625 0  0.75 0.0625 0  0.765625 0.0625 0  0.78125 0.0625 0  0.796875 0.0625 0  0.8125 0.0625 0  0.828125 0.0625 0  0.84375 0.0625 0  0.859375 0.0625 0  0.875 0.0625 0  0.890625 0.0625 0  0.90625 0.0625 0  0.921875 0.0625 0  0.9375 0.0625 0  0.953125 0.0625 0  0.96875 0.0625 0  0.984375 0.0625 0  1 0.0625 0  0 0.078125 0  0.015625 0.078125 0  0.03125 0.078125 0  0.046875 0.078125 0  0.0625 0.078125 0  0.078125 0.078125 0  0.09375 0.078125 0  0.109375 0.078125 0  0.125 0.078125 0  0.140625 0.078125 0  0.15625 0.078125 0  0.171875 0.078125 0  0.1875 0.078125 0  0.203125 0.078125 0  0.21875 0.078125 0  0.234375 0.078125 0  0.25 0.078125 0  0.265625 0.078125 0  0.28125 0.078125 0  0.296875 0.078125 0  0.3125 0.078125 0  0.328125 0.078125 0  0.34375 0.078125 0  0.359375 0.078125 0  0.375 0.078125 0  0.390625 0.078125 0  0.40625 0.078125 0  0.421875 0.078125 0  0.4375 0.078125 0  0.453125 0.078125 0  0.46875 0.078125 0  0.484375 0.078125 0  0.5 0.078125 0  0.515625 0.078125 0  0.53125 0.078125 0  0.546875 0.078125 0  0.5625 0.078125 0  0.578125 0.078125 0  0.59375 0.078125 0  0.609375 0.078125 0  0.625 0.078125 0  0.640625 0.078125 0  0.65625 0.078125 0  0.671875 0.078125 0  0.6875 0.078125 0  0.703125 0.078125 0  0.71875 0.078125 0  0.734375 0.078125 0  0.75 0.078125 0  0.765625 0.078125 0  0.78125 0.078125 0  0.796875 0.078125 0  0.8125 0.078125 0  0.828125 0.078125 0  0.84375 0.078125 0  0.859375 0.078125 0  0.875 0.078125 0  0.890625 0.078125 0  0.90625 0.078125 0  0.921875 0.078125 0  0.9375 0.078125 0  0.953125 0.078125 0  0.96875 0.078125 0  0.984375 0.078125 0  1 0.078125 0  0 0.09375 0  0.015625 0.09375 0  0.03125 0.09375 0  0.046875 0.09375 0  0.0625 0.09375 0  0.078125 0.09375 0  0.09375 0.09375 0  0.109375 0.09375 0  0.125 0.09375 0  0.140625 0.09375 0  0.15625 0.09375 0  0.171875 0.09375 0  0.1875 0.09375 0  0.203125 0.09375 0  0.21875 0.09375 0  0.234375 0.09375 0  0.25 0.09375 0  0.265625 0.09375 0  0.28125 0.09375 0  0.296875 0.09375 0  0.3125 0.09375 0  0.328125 0.09375 0  0.34375 0.09375 0  0.359375 0.09375 0  0.375 0.09375 0  0.390625 0.09375 0  0.40625 0.09375 0  0.421875 0.09375 0  0.4375 0.09375 0  0.453125 0.09375 0  0.46875 0.09375 0  0.484375 0.09375 0  0.5 0.09375 0  0.515625 0.09375 0  0.53125 0.09375 0  0.546875 0.09375 0  0.5625 0.09375 0  0.578125 0.09375 0  0.59375 0.09375 0  0.609375 0.09375 0  0.625 0.09375 0  0.640625 0.09375 0  0.65625 0.09375 0  0.671875 0.09375 0  0.6875 0.09375 0  0.703125 0.09375 0  0.71875 0.09375 0  0.734375 0.09375 0  0.75 0.09375 0  0.765625 0.09375 0  0.78125 0.09375 0  0.796875 0.09375 0  0.8125 0.09375 0  0.828125 0.09375 0  0.84375 0.09375 0  0.859375 0.09375 0  0.875 0.09375 0  0.890625 0.09375 0  0.90625 0.09375 0  0.921875 0.09375 0  0.9375 0.09375 0  0.953125 0.09375 0  0.96875 0.09375 0  0.984375 0.09375 0  1 0.09375 0  0 0.109375 0  0.015625 0.109375 0  0.03125 0.109375 0  0.046875 0.109375 0  0.0625 0.109375 0  0.078125 0.109375 0  0.09375 0.109375 0  0.109375 0.109375 0  0.125 0.109375 0  0.140625 0.109375 0  0.15625 0.109375 0  0.171875 0.109375 0  0.1875 0.109375 0  0.203125 0.109375 0  0.21875 0.109375 0  0.234375 0.109375 0  0.25 0.109375 0  0.265625 0.109375 0  0.28125 0.109375 0  0.296875 0.109375 0  0.3125 0.109375 0  0.328125 0.109375 0  0.34375 0.109375 0  0.359375 0.109375 0  0.375 0.109375 0  0.390625 0.109375 0  0.40625 0.109375 0  0.421875 0.109375 0  0.4375 0.109375 0  0.453125 0.109375 0  0.46875 0.109375 0  0.484375 0.109375 0  0.5 0.109375 0  0.515625 0.109375 0  0.53125 0.109375 0  0.546875 0.109375 0  0.5625 0.109375 0  0.578125 0.109375 0  0.59375 0.109375 0  0.609375 0.109375 0  0.625 0.109375 0  0.640625 0.109375 0  0.65625 0.109375 0  0.671875 0.109375 0  0.6875 0.109375 0  0.703125 0.109375 0  0.71875 0.109375 0  0.734375 0.109375 0  0.75 0.109375 0  0.765625 0.109375 0  0.78125 0.109375 0  0.796875 0.109375 0  0.8125 0.109375 0  0.828125 0.109375 0  0.84375 0.109375 0  0.859375 0.109375 0  0.875 0.109375 0  0.890625 0.109375 0  0.90625 0.109375 0  0.921875 0.109375 0  0.9375 0.109375 0  0.953125 0.109375 0  0.96875 0.109375 0  0.984375 0.109375 0  1 0.109375 0  0 0.125 0  0.015625 0.125 0  0.03125 0.125 0  0.046875 0.125 0  0.0625 0.125 0  0.078125 0.125 0  0.09375 0.125 0  0.109375 0.125 0  0.125 0.12
[...]
<PointData  Scalars="f_6"> 
<DataArray  type="Float64"  Name="f_6"  format="ascii">-2.0000000000000000e+00  -1.9531250000000000e+00  -1.9062500000000000e+00  -1.8593750000000000e+00  -1.8125000000000000e+00  -1.7656250000000000e+00  -1.7187500000000000e+00  -1.6718750000000000e+00  -1.6250000000000000e+00  -1.5781250000000000e+00  -1.5312500000000000e+00  -1.4843750000000000e+00  -1.4375000000000000e+00  -1.3906250000000000e+00  -1.3437500000000000e+00  -1.2968750000000000e+00  -1.2500000000000000e+00  -1.2031250000000000e+00  -1.1562500000000000e+00  -1.1093750000000000e+00  -1.0625000000000000e+00  -1.0156250000000000e+00  -9.6875000000000000e-01  -9.2187500000000000e-01  -8.7500000000000000e-01  -8.2812500000000000e-01  -7.8125000000000000e-01  -7.3437500000000000e-01  -6.8750000000000000e-01  -6.4062500000000000e-01  -5.9375000000000000e-01  -5.4687500000000000e-01  -5.0000000000000000e-01  -4.5312500000000000e-01  -4.0625000000000000e-01  -3.5937500000000000e-01  -3.1250000000000000e-01  -2.6562500000000000e-01  -2.1874999999999997e-01  -1.7187500000000000e-01  -1.2500000000000000e-01  -7.8125000000000000e-02  -3.1250000000000000e-02  1.5625000000000000e-02  6.2500000000000000e-02  1.0937500000000000e-01  1.5625000000000000e-01  2.0312500000000000e-01  2.5000000000000000e-01  2.9687500000000000e-01  3.4375000000000000e-01  3.9062500000000000e-01  4.3750000000000000e-01  4.8437500000000000e-01  5.3125000000000000e-01  5.7812500000000000e-01  6.2500000000000000e-01  6.7187500000000000e-01  7.1875000000000000e-01  7.6562500000000000e-01  8.1250000000000000e-01  8.5937500000000000e-01  9.0625000000000000e-01  9.5312500000000000e-01  1.0000000000000000e+00  -2.0000000000000000e+00  -1.9132726228589985e+00  -1.8332369622914444e+00  -1.7584661124435501e+00  -1.6880379615302263e+00  -1.6212826089916628e+00  -1.5576804041139036e+00  -1.4968126163579900e+00  -1.4383337310455100e+00  -1.3819540397955510e+00  -1.3274277790880111e+00  -1.2745445723238877e+00  -1.2231229985130541e+00  -1.1730056148647545e+00  -1.1240550201132469e+00  -1.0761506893641972e+00  -1.0291863964086916e+00  -9.8306809276410501e-01  -9.3771214780738976e-01  -8.9304387861901213e-01  -8.4899631578405799e-01  -8.0550916502121084e-01  -7.6252793590116275e-01  -7.2000321942454060e-01  -6.7789010716636866e-01  -6.3614775792307121e-01  -5.9473913660240896e-01  -5.5363097931850269e-01  -5.1279408009003502e-01  -4.7220402802744305e-01  -4.3184245971713425e-01  -3.9169849642058696e-01  -3.5176897181790445e-01  -3.1205476718828890e-01  -2.7255384537716337e-01  -2.3327026568157078e-01  -1.9426590497826213e-01  -1.5564819147043293e-01  -1.1735177186426965e-01  -7.9134041663356608e-02  -4.4579203606110500e-02  -1.1927891178629838e-02  2.1763288222531259e-02  5.7386024417270060e-02  9.6134176991304610e-02  1.3801029949776364e-01  1.8130831638246153e-01  2.2537375780826949e-01  2.6991219251933107e-01  3.1477085448403003e-01  3.5986078646166142e-01  4.0512539213593740e-01  4.5052615620766984e-01  4.9603546446165531e-01  5.4163267473810328e-01  5.8730181326428521e-01  6.3303014560550475e-01  6.7880724760285016e-01  7.2462437662768886e-01  7.7047403060838959e-01  8.1634962825492741e-01  8.6224526936880308e-01  9.0815554879965699e-01  9.5407540632552112e-01  1.0000000000000000e+00  -2.0000000000000000e+00  -1.8765506411847177e+00  -1.7679286885323831e+00  -1.6707239269328038e+00  -1.5825862342053929e+00  -1.5018170213886923e+00  -1.4271413697232140e+00  -1.3575743515937928e+00  -1.2923379259578360e+00  -1.2308065263540513e+00  -1.1724698760947390e+00  -1.1169066824387792e+00  -1.0637654998332757e+00  -1.0127504870733175e+00  -9.6361060417933997e-01  -9.1613128644554453e-01  -8.7012793952659284e-01  -8.2544079712314811e-01  -7.8193081433279332e-01  -7.3947635972975378e-01  -6.9797053266096420e-01  -6.5731897854424282e-01  -6.1743811038635399e-01  -5.7825367366296976e-01  -5.3969961743301020e-01  -5.0171726043254161e-01  -4.6425477237243690e-01  -4.2726703876713812e-01  -3.9071606053845831e-01  -3.5457217002531916e-01  -3.1881647112546935e-01  -2.8344473789955937e-01  -2.4847154447359548e-01  -2.1392846803949511e-01  -1.7984400014656893e-01  -1.4622978542888981e-01  -1.1324078669979028e-01  -8.1390600778815964e-02  -5.0930519453657792e-02  -2.3023179370330538e-02  3.0253394151666395e-03  2.9786673435701690e-02  5.8755899980430529e-02  9.0821869771437524e-02  1.2664038405018471e-01  1.6522370461728844e-01  2.0559920822381320e-01  2.4714952233128529e-01  2.8950415778502497e-01  3.3243543895512762e-01  3.7579689922667797e-01  4.1948962587441863e-01  4.6344376823308669e-01  5.0760802690084861e-01  5.5194342122647266e-01  5.9641943271353259e-01  6.4101152155488383e-01  6.8569946817820704e-01  7.3046622829951580e-01  7.7529711755094244e-01  8.2017921304251695e-01  8.6510090042062759e-01  9.1005151950430330e-01  9.5502107650242762e-01  1.0000000000000000e+00  -2.0000000000000000e+00  -1.8423670736359568e+00  -1.7089899609755070e+00  -1.5935705737574155e+00  -1.4918926406033142e+00  -1.4010113107756867e+00  -1.3187951946971166e+00  -1.2436555044721482e+00  -1.1743786492026875e+00  -1.1100185403351364e+00  -1.0498248204525455e+00  -9.9319354605880150e-01  -9.3963239251853992e-01  -8.8873553814895978e-01  -8.4016517232805010e-01  -7.9363764350170618e-01  -7.4891292496745021e-01  -7.0578649726008191e-01  -6.6408302065542735e-01  -6.2365135499009894e-01  -5.8436060992146333e-01  -5.4609699763800623e-01  -5.0876132527128159e-01  -4.7226701479476391e-01  -4.3653858000633661e-01  -4.0151052740484861e-01  -3.6712668521747638e-01  -3.3334001548831049e-01  -3.0011306436844765e-01  -2.6741943414203212e-01  -2.3524714188995233e-01  -2.0360556740412225e-01  -1.7253841580552054e-01  -1.4214030913029507e-01  -1.1253264449627780e-01  -8.3713544469179696e-02  -5.5704503397428169e-02  -3.0670506300180686e-02  -7.7886397478696542e-03  1.4428427949301227e-02  3.6871803533951766e-02  6.1503099788042082e-02  8.9511553701159860e-02  1.2050517063786476e-01  1.5438178482070830e-01  1.9064492669739189e-01  2.2871528956421755e-01  2.6812096550803344e-01  3.0851947733435597e-01  3.4966984432477771e-01  3.9140174561550445e-01  4.3359244390197249e-01  4.7615126394940976e-01  5.1900945368217977e-01  5.6211355055340595e-01  6.0542097480848944e-01  6.4889703972229074e-01  6.9251287525557859e-01  7.3624395084122496e-01  7.8006899825334752e-01  8.2396920594357059e-01  8.6792759976688738e-01  9.1192855229450098e-01  9.5595738017988618e-01  1.0000000000000000e+00  -2.0000000000000000e+00  -1.8104117140859284e+00  -1.6554780180714848e+00  -1.5251333778218770e+00  -1.4129606751291359e+00  -1.3146549542771704e+00  -1.2272070637852297e+00  -1.1484415604487643e+00  -1.0767411468417982e+00  -1.0108749437701927e+00  -9.4988735935155211e-01  -8.9302379575210655e-01  -8.3967956282729750e-01  -7.8936387649262774e-01  -7.4167393713672192e-01  -6.9627591128558552e-01  -6.5289074607196806e-01  -6.1128343514082706e-01  -5.7125479515945654e-01  -5.3263510070262943e-01  -4.9527911900455041e-01  -4.5906221975730799e-01  -4.2387733095331598e-01  -3.8963258442161325e-01  -3.5624955386435925e-01  -3.2366203884454287e-01  -2.9181539087816577e-01  -2.6066641570893329e-01  -2.3018395143479040e-01  -2.0035043191756491e-01  -1.7116538500213860e-01  -1.4265362067935550e-01  -1.1488639527396492e-01  -8.8048261993990712e-02  -6.2565059939001549e-02  -3.8542416867215733e-02  -1.6767777024559651e-02  3.1045780713999556e-03  2.2730111597385361e-02  4.3109925729862705e-02  6.5132680358380601e-02  8.9842368481355017e-02  1.1728204439830203e-01  1.4730547425815341e-01  1.7973665789739193e-01  2.1425892778735317e-01  2.5049605782763168e-01  2.8809957280227477e-01  3.2678294171958777e-01  3.6632271539412264e-01  4.0654779500858973e-01  4.4732714016855668e-01  4.8855938998040011e-01  5.3016497332505474e-01  5.7208035249648104e-01  6.1425387624472805e-01  6.5664278727021130e-01  6.9921104228059128e-01  7.4192770155645749e-01  7.8476571867765266e-01  8.2770101271153051e-01  8.7071174040885047e-01  9.1377770972692696e-01  9.5687989192261602e-01  1.0000000000000000e+00  -2.0000000000000000e+00  -1.7804873705006670e+00  -1.6066880640620926e+00  -1.4640102443197318e+00  -1.3436100177318502e+00  -1.2397823640678896e+00  -1.1486637616515343e+00  -1.0675338049730700e+00  -9.9441491377771463e-01  -9.2783086647126012e-01  -8.6665480607637291e-01  -8.1001005391740599e-01  -7.5720335242039494e-01  -7.0767871699482210e-01  -6.6098478372628300e-01  -6.1675123210759319e-01  -5.7467145653212925e-01  -5.3448963405577232e-01  -4.9599094737730670e-01  -4.5899411587309880e-01  -4.2334564765342547e-01  -3.8891540221129201e-01  -3.5559317790543310e-01  -3.2328613270433376e-01  -2.9191692591437052e-01  -2.6142254252299102e-01  -2.3175382814230236e-01  -2.0287580428599408e-01  -1.7476884895281164e-01  -1.4743092606510963e-01  -1.2088153191073470e-01  -9.5169305819998565e-02  -7.0389391355668463e-02  -4.6671078072685293e-02  -2.5709073198771179e-02  -6.7942692157538830e-03  1.1142200720681004e-02  2.8781362770747769e-02  4.7492461536653527e-02  6.8152382245266832e-02  9.0706623688352930e-02  1.1545164938069531e-01  1.4246878115253989e-01  1.7169802409905491e-01  2.0300044472335282e-01  2.3615806872699727e-01  2.7091044115668111e-01  3.0699832615384648e-01  3.4419000134759770e-01  3.8229028052353531e-01  4.2113957885617526e-01  4.6060893178326417e-01  5.0059418247857934e-01  5.4101069714115790e-01  5.8178900986273530e-01  6.2287139040373063e-01  6.6420919083323526e-01  7.0576080504011807e-01  7.4749009442636061e-01  7.8936516218927499e-01  8.3135738581604857e-01  8.7344063943005701e-01  9.1559065428174091e-01  9.5778447778365083e-01  1.0000000000000000e+00  -2.0000000000000000e+00  -1.7524491953767993e+00  -1.5620677335384467e+00  -1.4091216656174324e+00  -1.2822092832401812e+00  -1.1742358536567783e+00  -1.0805303733645648e+00  -9.9787801421722699e-01  -9.2398553619428903e-01  -8.5716823239331619e-01  -7.9615765657438542e-01  -7.3997873897438005e-01  -6.8786855442967743e-01  -6.3922104857326045e-01  -5.9354847528637633e-01  -5.5045390379266113e-01  -5.0961124720683271e-01  -4.7075052102503989e-01  -4.3364681722012871e-01  -3.9811197352871963e-01  -3.6398823971160521e-01  -3.3114345867425704e-01  -2.9946743111552804e-01  -2.6886924640851140e-01  -2.3927546466506869e-01  -2.1062914986613129e-01  -1.8288989435284614e-01  -1.5603511240755880e-01  -1.3006296433664352e-01  -1.0499750204864033e-01  -8.0898081549762080e-02  -5.7880178459741451e-02  -3.6167084925787740e-02  -1.6878101764640187e-02  2.3985282074735691e-04  1.6725749529698627e-02  3.3454827690080007e-02  5.1051656374341350e-02  7.0305989533214167e-02  9.1300518026198235e-02  1.1408978276906886e-01  1.3878882420053343e-01  1.6544340673210739e-01  1.9401739626217343e-01  2.2440902816996736e-01  2.5646246124060185e-01  2.8998931191824923e-01  3.2479328930883172e-01  3.6068845699342167e-01  3.9750882649624597e-01  4.3511130810931148e-01  4.7337482562974559e-01  5.1219771100949507e-01  5.5149462289826234e-01  5.9119359940957172e-01  6.3123348467422413e-01  6.7156178061888161e-01  7.1213289262028512e-01  7.5290670891959177e-01  7.9384744983703848e-01  8.3492272893333119e-01  8.7610277721358787e-01  9.1735979018632852e-01  9.5866736493024673e-01  1.0000000000000000e+00  -2.0000000000000000e+00  -1.7261799477890205e+00  -1.5211688688128042e+00  -1.3596164838604647e+00  -1.2275080505692373e+00  -1.1164020572719622e+00  -1.0208778902543629e+00  -9.3727794049754576e-01  -8.6303485459368978e-01  -7.9628772161183881e-01  -7.3565133201854482e-01  -6.8007132225629963e-01  -6.2872986659233121e-01  -5.8098234684132100e-01  -5.3631367963409637e-01  -4.9430750317062849e-01  -4.5462400706784784e-01  -4.1698371609627172e-01  -3.8115547122542348e-01  -3.4694743788604726e-01  -3.1420035071856117e-01  -2.8278245672898578e-01  -2.5258579348479449e-01  -2.2352356999452933e-01  -1.9552854132157366e-01  -1.6855244093302213e-01  -1.4256683897012978e-01  -1.1756626474856666e-01  -9.3574962762771219e-02  -7.0659845309615124e-02  -4.8956148466772043e-02  -2.8775277719451011e-02  -1.0814950436830560e-02  5.2543159437894536e-03  2.0523759381392181e-02  3.6318782019355067e-02  5.3389415608363376e-02  7.1664445503323432e-02  9.1379322195663540e-02  1.1265391755724301e-01  1.3556316516119091e-01  1.6017045792026222e-01  1.8649862531318276e-01  2.1451912604756410e-01  2.4415581045374130e-01  2.7529343614719359e-01  3.0779105596688211e-01  3.4149706216980985e-01  3.7626171082101106e-01  4.1194526035871565e-01  4.4842200145507904e-01  4.8558135161691135e-01  5.2332721303139318e-01  5.6157648403282467e-01  6.0025728020306490e-01  6.3930716826471357e-01  6.7867155434778192e-01  7.1830227590254903e-01  7.5815639879468277e-01  7.9819519930595528e-01  8.3838330286664997e-01  8.7868795030463431e-01  9.1907836431973899e-01  9.5952519175100681e-01  1.0000000000000000e+00  -2.0000000000000000e+00  -1.7015787907574131e+00  -1.4836187821541862e+00  -1.3148102452286892e+00  -1.1785279089661809e+00  -1.0650462803382459e+00  -9.6825669969367434e-01  -8.8410787432852811e-01  -8.0979534110726370e-01  -7.4330945383543945e-01  -6.8316863373548131e-01  -6.2825446543275909e-01  -5.7770572234137796e-01  -5.3084799223430601e-01  -4.8714561861490047e-01  -4.4616808788880952e-01  -4.0756603880011733e-01  -3.7105385047993034e-01  -3.3639684118369362e-01  -3.0340178103465082e-01  -2.7190985471002360e-01  -2.4179149885871129e-01  -2.1294273982581596e-01  -1.8528280574590686e-01  -1.5875292337659677e-01  -1.3331643710188759e-01  -1.0896098144514527e-01  -8.5704851876502106e-02  -6.3612336235658762e-02  -4.2825339934640667e-02  -2.3729861096539982e-02  -6.7468608605577218e-03  8.5938443513422780e-03  2.3270109644515771e-02  3.8361027630602652e-02  5.4636203557966084e-02  7.2119607220695048e-02  9.0837387834925454e-02  1.1089293618887355e-01  1.3237266484591939e-01  1.5533850239818950e-01  1.7983121700614188e-01  2.0586151055279739e-01  2.3340467216115901e-01  2.6240165145024030e-01  2.9276441692754912e-01  3.2438441363227583e-01  3.5714219258251478e-01  3.9091606376209725e-01  4.2558850266252646e-01  4.6105008573537776e-01  4.9720136635142803e-01  5.3395330546634157e-01  5.7122681999857861e-01  6.0895186910515020e-01  6.4706635383378364e-01  6.8551499260498350e-01  7.2424825784744684e-01  7.6322141105063546e-01  8.0239364572545013e-01  8.4172733292267909e-01  8.8118735681856108e-01  9.2074052503698622e-01  9.6035503775404218e-01  1.0000000000000000e+00  -2.0000000000000000e+00  -1.6785557877442321e+00  -1.4491020217033317e+00  -1.2741435601873983e+00  -1.1344896443021735e+00  -1.0192046662101322e+00  -9.2155303201854444e-01  -8.3713477738417119e-01  -7.6294057713136076e-01  -6.9683512100019507e-01  -6.3725710119212742e-01  -5.8303619321955980e-01  -5.3327674564831462e-01  -4.8728127610888033e-01  -4.4449866010604516e-01  -4.0448816268044296e-01  -3.6689394396158925e-01  -3.3142668216401544e-01  -2.9785016362459654e-01  -2.6597143810906493e-01  -2.3563362117944708e-01  -2.0671075475002906e-01  -1.7910437769127613e-01  -1.5274164687885519e-01  -1.2757500904479466e-01  -1.0358366614734854e-01  -8.0778058283543466e-02  -5.9212721205740448e-02  -3.9020554826402203e-02  -2.0625763115610023e-02  -4.3237175518978455e-03  1.0471492692459202e-02  2.4726315765851836e-02  3.9368710878419158e-02  5.5014037938536549e-02  7.1745397361211577e-02  8.9615421881525242e-02  1.0867256242680977e-01  1.2898236987898584e-01  1.5060530323937132e-01  1.7358696257950584e-01  1.9795439715331847e-01  2.2371152773070582e-01  2.5083640059403439e-01  2.7928170625851179e-01  3.0897816648048676e-01  3.3983998905215723e-01  3.7177123076587576e-01  4.0467184898233688e-01  4.3844260079391523e-01  4.7298847247247772e-01  5.0822072258708151e-01  5.4405782248396639e-01  5.8042562138999831e-01  6.1725702238517333e-01  6.5449138536028728e-01  6.9207380439092170e-01  7.2995435183161950e-01  7.6808734183496186e-01  8.0643063962253059e-01  8.4494502628005530e-01  8.8359361900994415e-01  9.2234134125560285e-01  9.6115443422817581e-01  1.0000000000000000e+00  -2.0000000000000000e+00  -1.6570290230649307e+00  -1.4173481083463371e+00  -1.2371530820390955e+00  -1.0947632167994885e+00  -9.7811181694936011e-01  -8.7989476311070136e-01  -7.9540387721758377e-01  -7.2145277451721523e-01  -6.5579975961643777e-01  -5.9681735860288654e-01  -5.4329303205752955e-01  -4.9430374363033830e-01  -4.4913413350411979e-01  -4.0722149935311880e-01  -3.6811784716169593e-01  -3.3146315662346326e-01  -2.9696623056913485e-01  -2.6439082187090679e-01  -2.3354555039950339e-01  -2.0427665553876520e-01  -1.7646300774353979e-01  -1.5001311561247549e-01  -1.2486417880765985e-01  -1.0098357379194652e-01  -7.8373508332644143e-02  -5.7080957390846059e-02  -3.7224121973956574e-02  -1.9199172298688384e-02  -3.3084513543537863e-03  1.1091158519834146e-02  2.5004820605868453e-02  3.9298010053450343e-02  5.4464380164772480e-02  7.0581015883912801e-02  8.7715926066818342e-02  1.0592412051738467e-01  1.2525507011180262e-01  1.4575867766088862e-01  1.6747921565307447e-01  1.9044964752714402e-01  2.1468788129692057e-01  2.4019380262267295e-01  2.6694769622576103e-01  2.9491060650928591e-01  3.2402655368372935e-01  3.5422614532999014e-01  3.8543089244649326e-01  4.1755750060745944e-01  4.5052157905832013e-01  4.8424048077353582e-01  5.1863522904045378e-01  5.5363164049244384e-01  5.8916082069227560e-01  6.2515921368525762e-01  6.6156836083127024e-01  6.9833448776679619e-01  7.3540800325314815e-01  7.7274296483506089e-01  8.1029654464965528e-01  8.4802851356506737e-01  8.8590075168555682e-01  9.2387678674730556e-01  9.6192135790305833e-01  1.0000000000000000e+00  -2.0000000000000000e+00  -1.6369230126289926e+00  -1.3881228680727931e+00  -1.2034507003592356e+00  -1.0588325267391219e+00  -9.4115088701528471e-01  -8.4258772780303803e-01  -7.5816262349287200e-01  -6.8453598422634510e-01  -6.1937582526492252e-01  -5.6099958237896252e-01  -5.0816027205003234e-01  -4.5991302686849117e-01  -4.1552865005132800e-01  -3.7443585370282506e-01  -3.3618164412032470e-01  -3.0040356770119125e-01  -2.6680994851552708e-01  -2.3516567941637456e-01  -2.0528201201114785e-01  -1.7700937056857191e-01  -1.5023264655561547e-01  -1.2486885417970037e-01  -1.0086764264399109e-01  -7.8216281933948056e-02  -5.6952607665295869e-02  -3.7191580030709978e-02  -1.9259838427530925e-02  -3.5366078668996790e-03  1.0615223696697927e-02  2.4244738451405005e-02  3.8228494177968093e-02  5.2996523677308595e-02  6.8609783843307626e-02  8.5129719365523840e-02  1.0261317050476432e-01  1.2111006400939252e-01  1.4066491984212742e-01  1.6131805499969154e-01  1.8310323418489383e-01  2.0604453057907526e-01  2.3015367788454677e-01  2.5542810523730441e-01  2.8184997517705063e-01  3.0938646986914153e-01  3.3799129641515457e-01  3.6760714613758072e-01  3.9816869308264852e-01  4.2960568194268739e-01  4.6184573405837026e-01  4.9481664252289176e-01  5.2844807230875412e-01  5.6267268975307982e-01  5.9742680720140273e-01  6.3265065083231109e-01  6.6828835651273921e-01  7.0428778259184488e-01  7.4060020857911635e-01  7.7717996960247815e-01  8.1398406057596184e-01  8.5097173164500173e-01  8.8810408741991020e-01  9.2534369614500400e-01  9.6265421063675194e-01  1.0000000000000000e+00  -2.0000000000000000e+00  -1.6181677788279802e+00  -1.3612220516966889e+00  -1.1727082526652828e+00  -1.0262700354754033e+00  -9.0781834520230309e-01  -8.0907152732873089e-01  -7.2480869314358176e-01  -6.5155748522308177e-01  -5.8690908720946766e-01  -5.2913492060806044e-01  -4.7695981767397294e-01  -4.2942148840684879e-01  -3.8578006613894239e-01  -3.4545799953965062e-01  -3.0799903833087344e-01  -2.7303964599363273e-01  -2.4028876563305809e-01  -2.0951339428059670e-01  -1.8052836579104278e-01  -1.5318936869726085e-01  -1.2738870791977133e-01  -1.0305385251655452e-01  -8.0149861291630917e-02  -5.8689902446754268e-02  -3.8768641623730830e-02  -2.0676597539826529e-02  -4.9059935594142831e-03  9.1441996497839406e-03  2.2554973572498336e-02  3.6251975960689596e-02 