<?xml version="1.0"?>
<VTKFile type="UnstructuredGrid"  version="0.1"  >
<UnstructuredGrid>
<Piece  NumberOfPoints="4225" NumberOfCells="8192">
<Points>
<DataArray  type="Float64"  NumberOfComponents="3"  format="ascii">0 0 0  0.015625 0 0  0.03125 0 0  0.046875 0 0  0.0625 0 0  0.078125 0 0  0.09375 0 0  0.109375 0 0  0.125 0 0  0.140625 0 0  0.15625 0 0  0.171875 0 0  0.1875 0 0  0.203125 0 0  0.21875 0 0  0.234375 0 0  0.25 0 0  0.265625 0 0  0.28125 0 0  0.296875 0 0  0.3125 0 0  0.328125 0 0  0.34375 0 0  0.359375 0 0  0.375 0 0  0.390625 0 0  0.40625 0 0  0.421875 0 0  0.4375 0 0  0.453125 0 0  0.46875 0 0  0.484375 0 0  0.5 0 0  0.515625 0 0  0.53125 0 0  0.546875 0 0  0.5625 0 0  0.578125 0 0  0.59375 0 0  0.609375 0 0  0.625 0 0  0.640625 0 0  0.65625 0 0  0.671875 0 0  0.6875 0 0  0.703125 0 0  0.71875 0 0  0.734375 0 0  0.75 0 0  0.765625 0 0  0.78125 0 0  0.796875 0 0  0.8125 0 0  0.828125 0 0  0.84375 0 0  0.859375 0 0  0.875 0 0  0.890625 0 0  0.90625 0 0  0.921875 0 0  0.9375 0 0  0.953125 0 0  0.96875 0 0  0.984375 0 0  1 0 0  0 0.015625 0  0.015625 0.015625 0  0.03125 0.015625 0  0.046875 0.015625 0  0.0625 0.015625 0  0.078125 0.015625 0  0.09375 0.015625 0  0.109375 0.015625 0  0.125 0.015625 0  0.140625 0.015625 0  0.15625 0.015625 0  0.171875 0.015625 0  0.1875 0.015625 0  0.203125 0.015625 0  0.21875 0.015625 0  0.234375 0.015625 0  0.25 0.015625 0  0.265625 0.015625 0  0.28125 0.015625 0  0.296875 0.015625 0  0.3125 0.015625 0  0.328125 0.015625 0  0.34375 0.015625 0  0.359375 0.015625 0  0.375 0.015625 0  0.390625 0.015625 0  0.40625 0.015625 0  0.421875 0.015625 0  0.4375 0.015625 0  0.453125 0.015625 0  0.46875 0.015625 0  0.484375 0.015625 0  0.5 0.015625 0  0.515625 0.015625 0  0.53125 0.015625 0  0.546875 0.015625 0  0.5625 0.015625 0  0.578125 0.015625 0  0.59375 0.015625 0  0.609375 0.015625 0  0.625 0.015625 0  0.640625 0.015625 0  0.65625 0.015625 0  0.671875 0.015625 0  0.6875 0.015625 0  0.703125 0.015625 0  0.71875 0.015625 0  0.734375 0.015625 0  0.75 0.015625 0  0.765625 0.015625 0  0.78125 0.015625 0  0.796875 0.015625 0  0.8125 0.015625 0  0.828125 0.015625 0  0.84375 0.015625 0  0.859375 0.015625 0  0.875 0.015625 0  0.890625 0.015625 0  0.90625 0.015625 0  0.921875 0.015625 0  0.9375 0.015625 0  0.953125 0.015625 0  0.96875 0.015625 0  0.984375 0.015625 0  1 0.015625 0  0 0.03125 0  0.015625 0.03125 0  0.03125 0.03125 0  0.046875 0.03125 0  0.0625 0.03125 0  0.078125 0.03125 0  0.09375 0.03125 0  0.109375 0.03125 0  0.125 0.03125 0  0.140625 0.03125 0  0.15625 0.03125 0  0.171875 0.03125 0  0.1875 0.03125 0  0.203125 0.03125 0  0.21875 0.03125 0  0.234375 0.03125 0  0.25 0.03125 0  0.265625 0.03125 0  0.28125 0.03125 0  0.296875 0.03125 0  0.3125 0.03125 0  0.328125 0.03125 0  0.34375 0.03125 0  0.359375 0.03125 0  0.375 0.03125 0  0.390625 0.03125 0  0.40625 0.03125 0  0.421875 0.03125 0  0.4375 0.03125 0  0.453125 0.03125 0  0.46875 0.03125 0  0.484375 0.03125 0  0.5 0.03125 0  0.515625 0.03125 0  0.53125 0.03125 0  0.546875 0.03125 0  0.5625 0.03125 0  0.578125 0.03125 0  0.59375 0.03125 0  0.609375 0.03125 0  0.625 0.03125 0  0.640625 0.03125 0  0.65625 0.03125 0  0.671875 0.03125 0  0.6875 0.03125 0  0.703125 0.03125 0  0.71875 0.03125 0  0.734375 0.03125 0  0.75 0.03125 0  0.765625 0.03125 0  0.78125 0.03125 0  0.796875 0.03125 0  0.8125 0.03125 0  0.828125 0.03125 0  0.84375 0.03125 0  0.859375 0.03125 0  0.875 0.03125 0  0.890625 0.03125 0  0.90625 0.03125 0  0.921875 0.03125 0  0.9375 0.03125 0  0.953125 0.03125 0  0.96875 0.03125 0  0.984375 0.03125 0  1 0.03125 0  0 0.046875 0  0.015625 0.046875 0  0.03125 0.046875 0  0.046875 0.046875 0  0.0625 0.046875 0  0.078125 0.046875 0  0.09375 0.046875 0  0.109375 0.046875 0  0.125 0.046875 0  0.140625 0.046875 0  0.15625 0.046875 0  0.171875 0.046875 0  0.1875 0.046875 0  0.203125 0.046875 0  0.21875 0.046875 0  0.234375 0.046875 0  0.25 0.046875 0  0.265625 0.046875 0  0.28125 0.046875 0  0.296875 0.046875 0  0.3125 0.046875 0  0.328125 0.046875 0  0.34375 0.046875 0  0.359375 0.046875 0  0.375 0.046875 0  0.390625 0.046875 0  0.40625 0.046875 0  0.421875 0.046875 0  0.4375 0.046875 0  0.453125 0.046875 0  0.46875 0.046875 0  0.484375 0.046875 0  0.5 0.046875 0  0.515625 0.046875 0  0.53125 0.046875 0  0.546875 0.046875 0  0.5625 0.046875 0  0.578125 0.046875 0  0.59375 0.046875 0  0.609375 0.046875 0  0.625 0.046875 0  0.640625 0.046875 0  0.65625 0.046875 0  0.671875 0.046875 0  0.6875 0.046875 0  0.703125 0.046875 0  0.71875 0.046875 0  0.734375 0.046875 0  0.75 0.046875 0  0.765625 0.046875 0  0.78125 0.046875 0  0.796875 0.046875 0  0.8125 0.046875 0  0.828125 0.046875 0  0.84375 0.046875 0  0.859375 0.046875 0  0.875 0.046875 0  0.890625 0.046875 0  0.90625 0.046875 0  0.921875 0.046875 0  0.9375 0.046875 0  0.953125 0.046875 0  0.96875 0.046875 0  0.984375 0.046875 0  1 0.046875 0  0 0.0625 0  0.015625 0.0625 0  0.03125 0.0625 0  0.046875 0.0625 0  0.0625 0.0625 0  0.078125 0.0625 0  0.09375 0.0625 0  0.109375 0.0625 0  0.125 0.0625 0  0.140625 0.0625 0  0.15625 0.0625 0  0.171875 0.0625 0  0.1875 0.0625 0  0.203125 0.0625 0  0.21875 0.0625 0  0.234375 0.0625 0  0.25 0.0625 0  0.265625 0.0625 0  0.28125 0.0625 0  0.296875 0.0625 0  0.3125 0.0625 0  0.328125 0.0625 0  0.34375 0.0625 0  0.359375 0.0625 0  0.375 0.0625 0  0.390625 0.0625 0  0.40625 0.0625 0  0.421875 0.0625 0  0.4375 0.0625 0  0.453125 0.0625 0  0.46875 0.0625 0  0.484375 0.0625 0  0.5 0.0625 0  0.515625 0.0625 0  0.53125 0.0625 0  0.546875 0.0625 0  0.5625 0.0625 0  0.578125 0.0625 0  0.59375 0.0625 0  0.609375 0.0625 0  0.625 0.0625 0  0.640625 0.0625 0  0.65625 0.0625 0  0.671875 0.0625 0  0.6875 0.0625 0  0.703125 0.0625 0  0.71875 0.0625 0  0.734375 0.0625 0  0.75 0.0625 0  0.765625 0.0625 0  0.78125 0.0625 0  0.796875 0.0625 0  0.8125 0.0625 0  0.828125 0.0625 0  0.84375 0.0625 0  0.859375 0.0625 0  0.875 0.0625 0  0.890625 0.0625 0  0.90625 0.0625 0  0.921875 0.0625 0  0.9375 0.0625 0  0.953125 0.0625 0  0.96875 0.0625 0  0.984375 0.0625 0  1 0.0625 0  0 0.078125 0  0.015625 0.078125 0  0.03125 0.078125 0  0.046875 0.078125 0  0.0625 0.078125 0  0.078125 0.078125 0  0.09375 0.078125 0  0.109375 0.078125 0  0.125 0.078125 0  0.140625 0.078125 0  0.15625 0.078125 0  0.171875 0.078125 0  0.1875 0.078125 0  0.203125 0.078125 0  0.21875 0.078125 0  0.234375 0.078125 0  0.25 0.078125 0  0.265625 0.078125 0  0.28125 0.078125 0  0.296875 0.078125 0  0.3125 0.078125 0  0.328125 0.078125 0  0.34375 0.078125 0  0.359375 0.078125 0  0.375 0.078125 0  0.390625 0.078125 0  0.40625 0.078125 0  0.421875 0.078125 0  0.4375 0.078125 0  0.453125 0.078125 0  0.46875 0.078125 0  0.484375 0.078125 0  0.5 0.078125 0  0.515625 0.078125 0  0.53125 0.078125 0  0.546875 0.078125 0  0.5625 0.078125 0  0.578125 0.078125 0  0.59375 0.078125 0  0.609375 0.078125 0  0.625 0.078125 0  0.640625 0.078125 0  0.65625 0.078125 0  0.671875 0.078125 0  0.6875 0.078125 0  0.703125 0.078125 0  0.71875 0.078125 0  0.734375 0.078125 0  0.75 0.078125 0  0.765625 0.078125 0  0.78125 0.078125 0  0.796875 0.078125 0  0.8125 0.078125 0  0.828125 0.078125 0  0.84375 0.078125 0  0.859375 0.078125 0  0.875 0.078125 0  0.890625 0.078125 0  0.90625 0.078125 0  0.921875 0.078125 0  0.9375 0.078125 0  0.953125 0.078125 0  0.96875 0.078125 0  0.984375 0.078125 0  1 0.078125 0  0 0.09375 0  0.015625 0.09375 0  0.03125 0.09375 0  0.046875 0.09375 0  0.0625 0.09375 0  0.078125 0.09375 0  0.09375 0.09375 0  0.109375 0.09375 0  0.125 0.09375 0  0.140625 0.09375 0  0.15625 0.09375 0  0.171875 0.09375 0  0.1875 0.09375 0  0.203125 0.09375 0  0.21875 0.09375 0  0.234375 0.09375 0  0.25 0.09375 0  0.265625 0.09375 0  0.28125 0.09375 0  0.296875 0.09375 0  0.3125 0.09375 0  0.328125 0.09375 0  0.34375 0.09375 0  0.359375 0.09375 0  0.375 0.09375 0  0.390625 0.09375 0  0.40625 0.09375 0  0.421875 0.09375 0  0.4375 0.09375 0  0.453125 0.09375 0  0.46875 0.09375 0  0.484375 0.09375 0  0.5 0.09375 0  0.515625 0.09375 0  0.53125 0.09375 0  0.546875 0.09375 0  0.5625 0.09375 0  0.578125 0.09375 0  0.59375 0.09375 0  0.609375 0.09375 0  0.625 0.09375 0  0.640625 0.09375 0  0.65625 0.09375 0  0.671875 0.09375 0  0.6875 0.09375 0  0.703125 0.09375 0  0.71875 0.09375 0  0.734375 0.09375 0  0.75 0.09375 0  0.765625 0.09375 0  0.78125 0.09375 0  0.796875 0.09375 0  0.8125 0.09375 0  0.828125 0.09375 0  0.84375 0.09375 0  0.859375 0.09375 0  0.875 0.09375 0  0.890625 0.09375 0  0.90625 0.09375 0  0.921875 0.09375 0  0.9375 0.09375 0  0.953125 0.09375 0  0.96875 0.09375 0  0.984375 0.09375 0  1 0.09375 0  0 0.109375 0  0.015625 0.109375 0  0.03125 0.109375 0  0.046875 0.109375 0  0.0625 0.109375 0  0.078125 0.109375 0  0.09375 0.109375 0  0.109375 0.109375 0  0.125 0.109375 0  0.140625 0.109375 0  0.15625 0.109375 0  0.171875 0.109375 0  0.1875 0.109375 0  0.203125 0.109375 0  0.21875 0.109375 0  0.234375 0.109375 0  0.25 0.109375 0  0.265625 0.109375 0  0.28125 0.109375 0  0.296875 0.109375 0  0.3125 0.109375 0  0.328125 0.109375 0  0.34375 0.109375 0  0.359375 0.109375 0  0.375 0.109375 0  0.390625 0.109375 0  0.40625 0.109375 0  0.421875 0.109375 0  0.4375 0.109375 0  0.453125 0.109375 0  0.46875 0.109375 0  0.484375 0.109375 0  0.5 0.109375 0  0.515625 0.109375 0  0.53125 0.109375 0  0.546875 0.109375 0  0.5625 0.109375 0  0.578125 0.109375 0  0.59375 0.109375 0  0.609375 0.109375 0  0.625 0.109375 0  0.640625 0.109375 0  0.65625 0.109375 0  0.671875 0.109375 0  0.6875 0.109375 0  0.703125 0.109375 0  0.71875 0.109375 0  0.734375 0.109375 0  0.75 0.109375 0  0.765625 0.109375 0  0.78125 0.109375 0  0.796875 0.109375 0  0.8125 0.109375 0  0.828125 0.109375 0  0.84375 0.109375 0  0.859375 0.109375 0  0.875 0.109375 0  0.890625 0.109375 0  0.90625 0.109375 0  0.921875 0.109375 0  0.9375 0.109375 0  0.953125 0.109375 0  0.96875 0.109375 0  0.984375 0.109375 0  1 0.109375 0  0 0.125 0  0.015625 0.125 0  0.03125 0.125 0  0.046875 0.125 0  0.0625 0.125 0  0.078125 0.125 0  0.09375 0.125 0  0.109375 0.125 0  0.125 0.12
[...]
<PointData  Scalars="f_6"> 
<DataArray  type="Float64"  Name="f_6"  format="ascii">-5.0000000000000000e+01  -4.8828125000000000e+01  -4.7656250000000000e+01  -4.6484375000000000e+01  -4.5312500000000000e+01  -4.4140625000000000e+01  -4.2968750000000000e+01  -4.1796875000000000e+01  -4.0625000000000000e+01  -3.9453125000000000e+01  -3.8281250000000000e+01  -3.7109375000000000e+01  -3.5937500000000000e+01  -3.4765624999449436e+01  -3.3593750000000000e+01  -3.2421875000000000e+01  -3.1250000000000000e+01  -3.0078125000000000e+01  -2.8906250000000000e+01  -2.7734375000000000e+01  -2.6562500000000000e+01  -2.5390625000000000e+01  -2.4218750000000000e+01  -2.3046875000000000e+01  -2.1875000000000000e+01  -2.0703125000000000e+01  -1.9531250000000000e+01  -1.8359375000000000e+01  -1.7187500000000000e+01  -1.6015625000000000e+01  -1.4843750000000000e+01  -1.3671875000000000e+01  -1.2500000000000000e+01  -1.1328125000000000e+01  -1.0156250000000000e+01  -8.9843750000000000e+00  -7.8125000000000000e+00  -6.6406250000000311e+00  -5.4687500000000000e+00  -4.2968750000000000e+00  -3.1250000000000000e+00  -1.9531250000000000e+00  -7.8125000000000000e-01  3.9062500000000000e-01  1.5625000000000000e+00  2.7343749994471125e+00  3.9062500000000000e+00  5.0781250000000000e+00  6.2500000000000000e+00  7.4218750000000000e+00  8.5937500000000000e+00  9.7656250000000000e+00  1.0937500000000000e+01  1.2109374993480742e+01  1.3281250000000000e+01  1.4453125000000000e+01  1.5625000000000000e+01  1.6796875000000000e+01  1.7968750000000000e+01  1.9140625000000000e+01  2.0312500000000000e+01  2.1484375000000000e+01  2.2656250000000000e+01  2.3828125000000000e+01  2.5000000000000000e+01  -5.0000000000000000e+01  -3.0865206604959555e+06  2.2740804955057424e+07  -4.2741203940007249e+06  5.6054305890028854e+05  -2.7168513793591905e+04  -8.4795849672618147e+05  3.3772434921000543e+05  1.4337023136469699e+05  -2.3757162596773636e+05  5.0942452665294259e+05  6.4225893627324505e+04  -4.4074141136258625e+05  1.6005424291221800e+06  -1.0840958825035379e+06  -1.9956301424877867e+05  -6.7607592393454135e+04  -8.6715011189437311e+04  6.2296516915119122e+04  8.6305835264107911e+04  -1.6922443523869701e+05  1.3423474935595720e+05  -2.9740075229096593e+05  1.1151559497574776e+05  -7.0473438212671538e+05  2.0356420618622899e+06  -6.4342146341225412e+06  5.0962888690896984e+05  -1.3102448181384902e+05  2.9733109974057828e+04  3.4437459465430053e+04  -5.4653054394624989e+04  5.5833233421641358e+04  -1.4026193334202105e+05  5.3883790949211674e+04  -3.0128440902245526e+04  1.1030723613712373e+05  -2.0230669555878706e+05  5.1749117009658978e+05  -5.6743530086877174e+05  1.9508435844667518e+05  -5.0608683911345717e+04  -2.9315138462281695e+04  2.4675669883357245e+04  -1.2538854307839189e+09  -1.0795605342866144e+09  -9.3016063478645051e+08  -9.8288482599261737e+08  -7.7480717423748636e+08  -5.1538175904380894e+08  -4.3756356697298050e+08  -4.7137092921357226e+08  -5.0527781909709692e+08  -8.5165327280456591e+08  5.2164490052606964e+08  1.9405132685416002e+09  -4.2520180150926042e+08  -2.2334481192090356e+08  -2.6219001079638952e+08  -2.0764866983826220e+08  -2.0702825328241736e+08  9.3894081908887014e+07  -1.2759105737939218e+08  -3.3729682145529181e+07  2.5000000000000000e+01  -5.0000000000000000e+01  2.9226697377771052e+05  -3.8840475824980330e+08  -7.0373902404310536e+08  -7.1149581387922502e+08  -1.1535582095688694e+09  -6.5556509267541087e+08  -6.1503800665702248e+08  -2.1041521390585053e+09  -2.7934841067074718e+09  -1.3539824266666751e+09  -1.7033911923328848e+09  -1.8631868975542116e+09  -1.9298150205819273e+09  -2.7081431059521050e+09  -1.2907578523704338e+09  -1.8741857501232972e+09  1.1498089963297668e+10  -1.3584494975470703e+10  -1.9934697150429031e+10  -1.7785244769221848e+10  -1.6207511052042292e+10  -2.9947698504558319e+10  -5.2905980038826416e+10  -9.8932470543254135e+10  -1.8737658847935907e+11  -6.5010082841960535e+11  6.5520482043897034e+10  -1.8373380894534106e+09  -5.5756464392522888e+09  2.0915535615486770e+09  5.3246388730528278e+09  4.4586130526022171e+10  -1.6060555220077177e+10  3.5270865063884134e+09  9.0759102945678768e+09  1.0702281187297659e+10  -3.2738048917177095e+09  3.5699497446139083e+09  -1.1984812782526253e+10  7.5695106016001673e+09  8.6736898815312683e+10  8.0978147178668289e+09  -5.6249480241511478e+09  -7.2617372214788322e+09  1.1775083506659275e+10  -4.3110883351612110e+09  6.2162922056569929e+09  6.9615305073367252e+09  -3.1291715324760399e+09  -2.8583585337278957e+09  1.5940166156501303e+09  -3.0116267488594508e+08  5.4455112354835439e+08  -1.1470483356373172e+09  -2.5226371878528414e+09  1.7060905310881728e+08  -1.3037127611196997e+09  -6.9122951641787982e+08  -9.1487540027241266e+08  8.9717791372455454e+08  -2.2665337069544315e+09  8.8917286945974422e+08  -4.0664602537298799e+07  2.5000000000000000e+01  -5.0000000000000000e+01  -3.9950782667088154e+05  4.8473501669713996e+07  9.4466273681247354e+08  -2.9011870141494304e+07  -8.5185149855696988e+08  2.0264566990669975e+09  -2.1762110786162381e+09  3.2424396055766611e+09  -1.7660318060275093e+10  -1.4537634257730074e+09  7.6742891545799887e+08  -1.8428349760047803e+09  -1.8048566029217305e+09  8.4009585613450279e+09  -1.4439856970988377e+10  2.2371264022786697e+10  -1.8505856129302654e+09  -6.8833607267662525e+09  7.3107238566987867e+09  -1.8672336787482792e+10  4.1141829195656967e+09  -3.1525909429698898e+10  6.2302854611630814e+10  -2.1254875678584869e+11  2.6137106109589749e+11  4.4788837778542548e+11  -1.2164313961198062e+11  -7.6229932767357758e+10  1.9407460936590921e+11  5.9044726565261780e+10  -3.2088646326640690e+10  -1.4747824839484440e+10  -3.5196592878943436e+10  -1.6900327731389750e+10  -3.6535327199113678e+10  -4.1961446442892319e+10  1.2016433534816612e+10  -1.6748156149712366e+10  -3.4237077545417835e+10  1.7587734803446556e+10  1.0914583504135551e+10  -4.6883657446352936e+10  -1.6205818889975288e+10  6.3407830036052837e+09  -1.4689585813688786e+10  -6.0925636603077984e+08  -3.3442843141696482e+09  -3.9472009922969723e+09  -2.8300253772857962e+09  1.8625872100494523e+09  -3.2595603724305892e+09  -3.4843008326670771e+09  -1.0294572227148097e+09  -1.1971097562054780e+09  -2.2412590664561462e+09  -2.0044854555398114e+09  -1.7861110029091094e+09  3.8106950519146280e+09  -1.8459772658059292e+09  -1.0653601638975029e+10  -3.1270402074894106e+08  -1.0776196755217960e+08  -9.0424022629116046e+08  2.5000000000000000e+01  -5.0000000000000000e+01  1.5676632077549244e+05  -4.3286636515027976e+08  -3.4688489253989019e+09  -1.3111698106409099e+09  1.1953842003435278e+09  -4.1125888338378334e+09  -7.6806560748142538e+09  -1.2210128847757282e+10  9.3887399729196434e+09  1.1559032318000605e+10  -1.1335782096150135e+10  -4.2840462260203514e+10  3.9025560832517151e+10  -2.0892110765460670e+10  -6.2426159505265832e+08  -1.6978230723990162e+10  -2.9472516691353722e+10  3.1013875895952202e+10  -4.9596201840575226e+10  3.1040466234786457e+10  -2.0171383492337079e+11  1.6151231654796136e+11  -7.1075532863613879e+11  4.7590443230775690e+11  -9.1571841052652191e+10  -3.5782055299719696e+11  -4.5523728858538965e+11  -4.1775302772736353e+11  3.2951100027337451e+11  -6.2514897894370679e+11  -6.9236640191219971e+10  1.7028788707167929e+08  4.0882409654291897e+09  -8.9502126120726643e+09  1.3513117299881891e+11  6.9768782515390930e+10  -2.2619218999407468e+11  -4.2120392536520905e+10  1.0867346213799170e+10  2.4033452111793861e+09  -8.9005183373288593e+09  -7.0063779780687927e+10  1.9577739467972588e+10  -1.7599143105013515e+10  -1.4880206981516796e+10  5.4100095896411285e+09  -4.9040259462520866e+09  1.7701076802534075e+09  4.3988105375978220e+08  2.8904785538041787e+09  -3.1760622198002734e+09  6.7754337212114868e+09  -1.3721750751011653e+09  2.8560383916580019e+09  1.7990402006497593e+09  9.6380820979827366e+09  -1.8712971504117074e+09  -2.0413762896480312e+09  -1.1112052307746968e+09  8.9329892029696484e+09  -1.2124793802926412e+09  7.7895745663696027e+08  2.0179205908967986e+09  2.5000000000000000e+01  -5.0000000000000000e+01  -1.5382761188179636e+05  -1.0256533885572968e+09  2.0405169028188777e+08  -8.1619038142357159e+08  -4.2474701288764526e+10  3.8102718700934753e+10  -2.5854849976421425e+10  2.5041415915459980e+10  1.5883108319832340e+10  -3.5582551027635536e+10  -1.4678105555408840e+10  5.4532504910785690e+10  -2.0911660927680927e+10  -4.5626394351099533e+10  8.6437809545360245e+10  -9.9912187203404480e+10  6.9052851648699707e+10  -1.5013616715205194e+11  9.5795898198141052e+10  -9.4443678672379639e+10  2.4573043506719104e+11  -2.3625870831018140e+11  5.7735688078482935e+11  2.9189877623043799e+11  1.0901478348118138e+11  4.8171339036884949e+11  -5.7165270446040253e+10  5.6396412447607886e+11  -5.0818638037272046e+11  8.4563584123451752e+10  -1.5335553576876957e+10  8.6098835597692688e+10  -1.6326139831080605e+10  -7.0739241793842564e+09  -2.2674893030545364e+10  4.4059183674692032e+10  -6.5071184657673998e+09  1.3106877912572662e+11  1.8602376350071045e+10  9.9829254775633001e+08  -5.6954447898307266e+10  -1.4633754638538170e+10  -8.3743582810187559e+09  -5.8651282380848322e+09  1.9934460358111290e+10  -1.1855397322031570e+10  -2.2037582201234879e+09  -2.5029530535876026e+09  -2.0752585368532703e+09  -1.9133396523042626e+09  -3.7169976746477923e+09  -4.9173163999304142e+09  -4.5347073363022690e+09  -2.9470118069055567e+09  -2.5738411923856692e+09  -3.2532399554905996e+09  -3.6908358034640789e+09  2.4793360194478207e+09  -2.3195513969384742e+09  6.3795756292577505e+08  -6.5136189644643784e+09  -4.4070960253587143e+10  4.7273500496882801e+09  2.5000000000000000e+01  -5.0000000000000000e+01  2.4433524096130137e+05  -9.9051358944126391e+08  1.4485230924667336e+07  1.4702573935485768e+09  9.4352315652063313e+09  -4.4214183946980629e+09  -1.6741179471190989e+08  -5.6183168623548412e+09  -4.9113525081699768e+10  -6.6475111642010517e+09  5.2734235916250504e+10  -8.5495325290362534e+10  -2.3638942274666809e+10  9.5315213884945023e+10  -1.1025163976180060e+11  6.9246266971295349e+10  -7.1187688522356720e+10  4.5623710586613541e+10  -5.4261154473989830e+10  6.8961018800032135e+10  -2.9811825963126843e+11  2.5413335969031061e+11  -3.5568603076622925e+11  -3.8006806339044991e+10  -2.1661690002151953e+11  -2.4315219073789810e+11  -5.3676734450117078e+11  -1.6216269002910709e+11  2.3492798579421661e+11  -5.9034152724526398e+10  -1.0137334942981598e+10  1.0242275139187973e+10  -6.4314356002947647e+10  6.9099658752376465e+10  2.4911306620454651e+10  9.5250398475001617e+10  3.7779417693067146e+10  5.5068176097171127e+10  -3.9209589169864029e+10  9.3369100150421539e+10  3.8765257219763043e+11  -6.2830988543912529e+10  1.2526933996628854e+09  5.2909067380378761e+09  -6.7021138905506783e+09  -5.4404992908932409e+09  6.3188261922439308e+09  2.1715455409962940e+09  -4.1771866889299408e+07  1.5994668829400315e+09  -3.7263533236649525e+08  3.1670827638991728e+09  7.6828548619674759e+09  8.4170894168829250e+09  5.1598485597154808e+09  1.1543238519482975e+09  -1.4473575484196675e+09  -3.3689845322316685e+09  5.8708634646577358e+08  -1.0489123598961730e+09  -4.6694465666382521e+08  3.0148803240939178e+09  -4.1874771609462585e+09  2.5000000000000000e+01  -5.0000000000000000e+01  -5.0524204718976445e+05  -1.1873172585415049e+09  -6.8554599898410058e+08  -1.3203612977202116e+10  2.1913033951691818e+10  5.5461179602039404e+09  -4.2450315566232086e+10  5.4648766534537048e+10  -6.4635022011010039e+08  5.4795620213642654e+10  -7.5922750885804901e+10  -2.3860459268804550e+10  1.0739015711712665e+11  -1.5638376097619083e+11  1.0929389980097256e+11  -1.3232885552486209e+11  1.1248305610317303e+11  -1.4831233275737061e+11  1.2909134800935925e+11  -2.6021294228424420e+11  3.7818658310158563e+11  -2.0567970182532184e+11  3.2340141786140100e+11  2.3989892916767212e+11  1.6247653142376411e+10  2.4762147271856155e+11  -2.0473992503643216e+11  5.3174254089790106e+11  -1.1241952907391005e+11  -2.8098186486957760e+10  2.3251274573483986e+10  -6.9348142863689941e+10  -4.5389933488166565e+10  2.3827811579656673e+10  -5.1872481529174294e+10  -3.9192826283297874e+10  -8.3724392047123134e+08  -1.6804084691071186e+10  -3.3702489973456314e+10  -4.2696281454974136e+10  -3.6368570276430634e+10  -3.2909932227529175e+11  6.5822648959289658e+10  1.6248733146337978e+10  -1.9794635411859145e+09  1.0659539655881140e+10  -1.2284611056647453e+10  8.2129598745755219e+10  1.8667416101325925e+11  1.8381544321804352e+11  1.6125396110525433e+11  1.1982573767603909e+11  7.5318946168453552e+10  3.8795922658939201e+10  1.4420835943816660e+10  8.1420939021090913e+08  -1.0000781674818920e+08  4.9176996792421608e+09  -1.7905720897452683e+09  -8.9066550110986280e+08  1.0825658149892673e+08  8.6555349798574758e+08  2.2658165119889539e+08  2.5000000000000000e+01  -5.0000000000000000e+01  1.1030535763418968e+06  -6.9964679949695647e+08  -1.5366803114084721e+09  1.8447167564081722e+10  -2.1957173278593662e+10  -3.7030279013111641e+10  5.2881330394735161e+10  -9.5599389418585480e+10  -3.1182314484319777e+09  -3.5041422507781265e+10  -3.4150183146552653e+09  1.3114118694591840e+11  -1.3902034626300403e+11  -4.1759166489542303e+09  7.7580421220327881e+10  -5.0048644237335800e+10  -1.1374468359693292e+11  8.2678141164864655e+10  -1.0805490306221021e+11  2.6947163803698618e+11  -2.0881967040389801e+11  2.1023827003687759e+11  -1.3864110513156433e+11  -3.7478592546132581e+11  -2.6375534984873672e+11  -7.0437393648165063e+11  3.8358020534590076e+11  -6.8082485626733765e+10  -6.0129744794986458e+10  -7.2715860781278473e+10  -6.0742796193863602e+10  -4.7423868288466904e+10  1.4967654069830070e+10  -6.6180217183821785e+10  -4.3482960191576279e+10  6.1975512512437544e+09  -3.2734499230348679e+10  -2.2259756083386078e+10  -2.4436794038464951e+10  3.1236866961561535e+10  -6.1586139007991692e+10  4.5125012084100024e+11  -2.5306264196945023e+10  -6.3930895135403967e+09  -6.5286947806104517e+09  -1.4792764359653656e+10  -1.6330395916133713e+10  -2.2499947903986621e+09  -1.8452497854722913e+11  -2.5030625390049615e+11  -2.2502467870493124e+11  -1.9754282106555554e+11  -1.5717376804645941e+11  -1.1282416719054720e+11  -7.4660226557907562e+10  -4.7103386272788506e+10  -3.0244599418194000e+10  -1.0749072361701708e+10  -7.1392955976663876e+09  -4.2164585918427396e+09  -1.5107393188278205e+09  -9.8402914750624812e+08  9.2104251444581878e+08  2.5000000000000000e+01  -5.0000000000000000e+01  2.8606960694915564e+06  8.9322230418304992e+08  -1.8836222658303442e+09  -2.8586338169162556e+10  -2.0104704903026985e+10  6.0494264115498299e+10  -4.1825696212759544e+10  8.3046910167522324e+10  -1.0873271025371199e+10  -1.4248689420436756e+10  1.0525686675220398e+10  -1.1420679939697571e+11  2.4263253384198713e+09  9.1036729856247921e+09  -1.1426381626096754e+10  -8.0815009633803284e+10  1.2627535026440298e+11  -5.7040387753595108e+10  2.2179295848423993e+11  -3.1985441721202808e+11  1.8440836483713049e+11  -1.6551525977258554e+11  -1.3179182122824872e+11  9.9953633194188614e+09  4.1963736141281700e+09  7.8522576903427502e+11  -1.5004813266443935e+10  -1.7496485475649635e+10  -6.1663812569324745e+10  -7.6973130729660217e+10  3.9032587244362968e+10  -6.8519168656663954e+07  -4.3834834345835098e+10  -5.0282598258182404e+10  6.5040694617228745e+10  -1.9936690626830029e+11  3.3195177683977771e+11  -3.1602986057556671e+10  4.9173823756986832e+10  -2.7360092302571381e+10  -1.3632989084971167e+11  -1.3286184368689258e+11  -3.3822883563663769e+10  2.0555543629188110e+10  -1.7486679260446072e+10  -1.1492220116177237e+10  4.9511884057384367e+09  -1.5475003597326200e+10  -1.5713611195238848e+10  1.7628385537568350e+11  1.5227852261017511e+11  1.6852524366337512e+11  1.5610626986245245e+11  1.1950501094386682e+11  7.8766009642680710e+10  4.6217569687782951e+10  2.4635894960184929e+10  1.2534729996374393e+10  4.6237213002070694e+09  7.3892271922975659e+08  -1.0695892598541955e+09  -3.0949455101328034e+09  -7.8111152863700557e+08  2.5000000000000000e+01  -5.0000000000000000e+01  -7.3006552624647766e+06  -5.8509983825324662e+07  -1.9103252757424445e+09  1.9818888382889450e+10  4.4729734780961769e+10  -1.9816025913321148e+10  7.5756087353419006e+10  -4.8621981841232628e+10  -2.6910201028977135e+10  1.5017480326008781e+10  -3.2011358305705193e+10  1.5773582601149233e+10  2.0596008613590878e+10  9.0757505896269264e+09  -5.5466914964733337e+10  8.8036886542067383e+10  -7.2818559567625458e+10  5.1987534954029068e+10  -1.3688167304252518e+11  2.1728958982008044e+11  4.4246614350922661e+09  -1.7319963036399240e+11  1.2770426373178722e+10  1.5531740813972570e+10  8.6134320955410736e+10  8.1833795098656616e+09  1.0259577774524240e+11  -2.7553811293921033e+11  1.0748338633954712e+11  -6.6335422455082535e+10  -1.3640549683668985e+11  -2.6362103064843802e+09  -4.3876679146337189e+10  3.4304329799762699e+10  -1.4300394409560294e+11  -5.3596258900569817e+10  -3.1563248491493618e+10  -4.8217194160692358e+11  -2.4279649501311077e+10  -3.5985793619227219e+10  7.3007010420054672e+10  -4.7081285898777740e+10  6.8830114147992615e+10  -2.5715333090761932e+10  -1.7172318936265163e+10  5.2004806682705145e+09  -1.4445535711261732e+10  -1.7203929135015213e+10  -6.4224766277384262e+09  -2.3396795865659283e+11  -1.9647956053813678e+11  -2.0149630550782587e+11  -1.9378128309679950e+11  -1.5524848778076306e+11  -1.0511071444578514e+11  -6.3405139701074493e+10  -3.6178618987275879e+10  -1.9455569947745255e+10  -1.0242715327857359e+10  -5.5969640734553490e+09  -3.3252900736160789e+09  1.0686443335371367e+09  -7.4203205207963228e+08  2.5000000000000000e+01  -5.0000000000000000e+01  1.8460840853773812e+06  -2.5351339916377506e+09  5.5181574409671783e+08  -6.7198037815801287e+09  -2.4511747982281845e+10  -1.2470356626235516e+09  -4.5971996199789032e+10  2.7308167641588044e+08  6.8904385258083515e+09  -1.3316994308669874e+10  -1.5771720021853638e+08  -2.3737103643533997e+10  -2.2462076731782312e+09  -8.2535849197327759e+10  3.3296485045952354e+10  -9.6005785402351456e+10  4.2931475455179115e+10  -2.5520954049791786e+10  -8.3791725717180054e+10  5.9332255881564178e+09  -2.0299184417400513e+11  1.8126780459231735e+10  -1.3387146361381186e+11  -5.5036480622721191e+10  -1.1419199692690287e+10  3.5637886913017212e+10  -8.5927014853095306e+10  2.3387517742497101e+10  -6.4781225503811310e+10  -5.9566316653788177e+10  2.2940529355393871e+10  2.6841650439329193e+10  -2.1167102269117783e+10  -6.0827197685721802e+10  -5.0951609151193619e+10  -9.9762830046395508e+10  2.9842571030323219e+10  -1.5422028314412018e+10  3.3536033370372375e+11  7.7621193165946948e+11  -2.7574839199676257e+11  -5.2467258521213623e+10  -5.6345866886995834e+10  4.9957602884206261e+10  -4.3963754844829683e+09  -1.4468882067870651e+10  -1.4961479671231297e+10  5.2217613687251294e+08  1.4543799769122531e+11  1.4958230681653296e+11  1.0751004159626923e+11  1.3598647809512849e+11  1.4563714207147803e+11  1.3347544109395117e+11  8.9174870256714828e+10  4.6141622944616135e+10  1.8772501718273720e+10  5.1564110861984501e+09  -6.0007707793696618e+08  -2.2023239005352821e+09  4.7719479838857460e+08  -1.5861127181334305e+09  -7.7989646143924451e+08  2.5000000000000000e+01  -5.0000000000000000e+01  -5.9228039179671177e+04  -1.3910843850237789e+09  -1.7527999320185909e+09  -5.3444175938861008e+09  -3.9711069223590165e+08  -3.4539043865218262e+10  1.3966388517940609e+10  1.2302105944710938e+10  -3.2986931126752808e+10  1.1224094388118225e+10  -3.2839785505312486e+09  -5.6833977242233658e+10  -1.8432768164706940e+10  6.5195258448954010e+10  -3.5224516288451050e+10  8.7821889635708954e+10  -5.9059796503146332e+10  -6.6886130755385590e+10  8.4050806157634827e+10  -3.0915191315576141e+10  1.8980009227815346e+10  1.1034297321763603e+11  -1.0121022851990498e+11  6.4952395813494186e+10  -1.5566294718927727e+10  -3.4749347860579262e+09  -7.6213499159381470e+10  2.6091963501330193e+10  -6.645475