<?xml version="1.0"?>
<VTKFile type="UnstructuredGrid"  version="0.1"  >
<UnstructuredGrid>
<Piece  NumberOfPoints="4225" NumberOfCells="8192">
<Points>
<DataArray  type="Float64"  NumberOfComponents="3"  format="ascii">0 0 0  0.015625 0 0  0.03125 0 0  0.046875 0 0  0.0625 0 0  0.078125 0 0  0.09375 0 0  0.109375 0 0  0.125 0 0  0.140625 0 0  0.15625 0 0  0.171875 0 0  0.1875 0 0  0.203125 0 0  0.21875 0 0  0.234375 0 0  0.25 0 0  0.265625 0 0  0.28125 0 0  0.296875 0 0  0.3125 0 0  0.328125 0 0  0.34375 0 0  0.359375 0 0  0.375 0 0  0.390625 0 0  0.40625 0 0  0.421875 0 0  0.4375 0 0  0.453125 0 0  0.46875 0 0  0.484375 0 0  0.5 0 0  0.515625 0 0  0.53125 0 0  0.546875 0 0  0.5625 0 0  0.578125 0 0  0.59375 0 0  0.609375 0 0  0.625 0 0  0.640625 0 0  0.65625 0 0  0.671875 0 0  0.6875 0 0  0.703125 0 0  0.71875 0 0  0.734375 0 0  0.75 0 0  0.765625 0 0  0.78125 0 0  0.796875 0 0  0.8125 0 0  0.828125 0 0  0.84375 0 0  0.859375 0 0  0.875 0 0  0.890625 0 0  0.90625 0 0  0.921875 0 0  0.9375 0 0  0.953125 0 0  0.96875 0 0  0.984375 0 0  1 0 0  0 0.015625 0  0.015625 0.015625 0  0.03125 0.015625 0  0.046875 0.015625 0  0.0625 0.015625 0  0.078125 0.015625 0  0.09375 0.015625 0  0.109375 0.015625 0  0.125 0.015625 0  0.140625 0.015625 0  0.15625 0.015625 0  0.171875 0.015625 0  0.1875 0.015625 0  0.203125 0.015625 0  0.21875 0.015625 0  0.234375 0.015625 0  0.25 0.015625 0  0.265625 0.015625 0  0.28125 0.015625 0  0.296875 0.015625 0  0.3125 0.015625 0  0.328125 0.015625 0  0.34375 0.015625 0  0.359375 0.015625 0  0.375 0.015625 0  0.390625 0.015625 0  0.40625 0.015625 0  0.421875 0.015625 0  0.4375 0.015625 0  0.453125 0.015625 0  0.46875 0.015625 0  0.484375 0.015625 0  0.5 0.015625 0  0.515625 0.015625 0  0.53125 0.015625 0  0.546875 0.015625 0  0.5625 0.015625 0  0.578125 0.015625 0  0.59375 0.015625 0  0.609375 0.015625 0  0.625 0.015625 0  0.640625 0.015625 0  0.65625 0.015625 0  0.671875 0.015625 0  0.6875 0.015625 0  0.703125 0.015625 0  0.71875 0.015625 0  0.734375 0.015625 0  0.75 0.015625 0  0.765625 0.015625 0  0.78125 0.015625 0  0.796875 0.015625 0  0.8125 0.015625 0  0.828125 0.015625 0  0.84375 0.015625 0  0.859375 0.015625 0  0.875 0.015625 0  0.890625 0.015625 0  0.90625 0.015625 0  0.921875 0.015625 0  0.9375 0.015625 0  0.953125 0.015625 0  0.96875 0.015625 0  0.984375 0.015625 0  1 0.015625 0  0 0.03125 0  0.015625 0.03125 0  0.03125 0.03125 0  0.046875 0.03125 0  0.0625 0.03125 0  0.078125 0.03125 0  0.09375 0.03125 0  0.109375 0.03125 0  0.125 0.03125 0  0.140625 0.03125 0  0.15625 0.03125 0  0.171875 0.03125 0  0.1875 0.03125 0  0.203125 0.03125 0  0.21875 0.03125 0  0.234375 0.03125 0  0.25 0.03125 0  0.265625 0.03125 0  0.28125 0.03125 0  0.296875 0.03125 0  0.3125 0.03125 0  0.328125 0.03125 0  0.34375 0.03125 0  0.359375 0.03125 0  0.375 0.03125 0  0.390625 0.03125 0  0.40625 0.03125 0  0.421875 0.03125 0  0.4375 0.03125 0  0.453125 0.03125 0  0.46875 0.03125 0  0.484375 0.03125 0  0.5 0.03125 0  0.515625 0.03125 0  0.53125 0.03125 0  0.546875 0.03125 0  0.5625 0.03125 0  0.578125 0.03125 0  0.59375 0.03125 0  0.609375 0.03125 0  0.625 0.03125 0  0.640625 0.03125 0  0.65625 0.03125 0  0.671875 0.03125 0  0.6875 0.03125 0  0.703125 0.03125 0  0.71875 0.03125 0  0.734375 0.03125 0  0.75 0.03125 0  0.765625 0.03125 0  0.78125 0.03125 0  0.796875 0.03125 0  0.8125 0.03125 0  0.828125 0.03125 0  0.84375 0.03125 0  0.859375 0.03125 0  0.875 0.03125 0  0.890625 0.03125 0  0.90625 0.03125 0  0.921875 0.03125 0  0.9375 0.03125 0  0.953125 0.03125 0  0.96875 0.03125 0  0.984375 0.03125 0  1 0.03125 0  0 0.046875 0  0.015625 0.046875 0  0.03125 0.046875 0  0.046875 0.046875 0  0.0625 0.046875 0  0.078125 0.046875 0  0.09375 0.046875 0  0.109375 0.046875 0  0.125 0.046875 0  0.140625 0.046875 0  0.15625 0.046875 0  0.171875 0.046875 0  0.1875 0.046875 0  0.203125 0.046875 0  0.21875 0.046875 0  0.234375 0.046875 0  0.25 0.046875 0  0.265625 0.046875 0  0.28125 0.046875 0  0.296875 0.046875 0  0.3125 0.046875 0  0.328125 0.046875 0  0.34375 0.046875 0  0.359375 0.046875 0  0.375 0.046875 0  0.390625 0.046875 0  0.40625 0.046875 0  0.421875 0.046875 0  0.4375 0.046875 0  0.453125 0.046875 0  0.46875 0.046875 0  0.484375 0.046875 0  0.5 0.046875 0  0.515625 0.046875 0  0.53125 0.046875 0  0.546875 0.046875 0  0.5625 0.046875 0  0.578125 0.046875 0  0.59375 0.046875 0  0.609375 0.046875 0  0.625 0.046875 0  0.640625 0.046875 0  0.65625 0.046875 0  0.671875 0.046875 0  0.6875 0.046875 0  0.703125 0.046875 0  0.71875 0.046875 0  0.734375 0.046875 0  0.75 0.046875 0  0.765625 0.046875 0  0.78125 0.046875 0  0.796875 0.046875 0  0.8125 0.046875 0  0.828125 0.046875 0  0.84375 0.046875 0  0.859375 0.046875 0  0.875 0.046875 0  0.890625 0.046875 0  0.90625 0.046875 0  0.921875 0.046875 0  0.9375 0.046875 0  0.953125 0.046875 0  0.96875 0.046875 0  0.984375 0.046875 0  1 0.046875 0  0 0.0625 0  0.015625 0.0625 0  0.03125 0.0625 0  0.046875 0.0625 0  0.0625 0.0625 0  0.078125 0.0625 0  0.09375 0.0625 0  0.109375 0.0625 0  0.125 0.0625 0  0.140625 0.0625 0  0.15625 0.0625 0  0.171875 0.0625 0  0.1875 0.0625 0  0.203125 0.0625 0  0.21875 0.0625 0  0.234375 0.0625 0  0.25 0.0625 0  0.265625 0.0625 0  0.28125 0.0625 0  0.296875 0.0625 0  0.3125 0.0625 0  0.328125 0.0625 0  0.34375 0.0625 0  0.359375 0.0625 0  0.375 0.0625 0  0.390625 0.0625 0  0.40625 0.0625 0  0.421875 0.0625 0  0.4375 0.0625 0  0.453125 0.0625 0  0.46875 0.0625 0  0.484375 0.0625 0  0.5 0.0625 0  0.515625 0.0625 0  0.53125 0.0625 0  0.546875 0.0625 0  0.5625 0.0625 0  0.578125 0.0625 0  0.59375 0.0625 0  0.609375 0.0625 0  0.625 0.0625 0  0.640625 0.0625 0  0.65625 0.0625 0  0.671875 0.0625 0  0.6875 0.0625 0  0.703125 0.0625 0  0.71875 0.0625 0  0.734375 0.0625 0  0.75 0.0625 0  0.765625 0.0625 0  0.78125 0.0625 0  0.796875 0.0625 0  0.8125 0.0625 0  0.828125 0.0625 0  0.84375 0.0625 0  0.859375 0.0625 0  0.875 0.0625 0  0.890625 0.0625 0  0.90625 0.0625 0  0.921875 0.0625 0  0.9375 0.0625 0  0.953125 0.0625 0  0.96875 0.0625 0  0.984375 0.0625 0  1 0.0625 0  0 0.078125 0  0.015625 0.078125 0  0.03125 0.078125 0  0.046875 0.078125 0  0.0625 0.078125 0  0.078125 0.078125 0  0.09375 0.078125 0  0.109375 0.078125 0  0.125 0.078125 0  0.140625 0.078125 0  0.15625 0.078125 0  0.171875 0.078125 0  0.1875 0.078125 0  0.203125 0.078125 0  0.21875 0.078125 0  0.234375 0.078125 0  0.25 0.078125 0  0.265625 0.078125 0  0.28125 0.078125 0  0.296875 0.078125 0  0.3125 0.078125 0  0.328125 0.078125 0  0.34375 0.078125 0  0.359375 0.078125 0  0.375 0.078125 0  0.390625 0.078125 0  0.40625 0.078125 0  0.421875 0.078125 0  0.4375 0.078125 0  0.453125 0.078125 0  0.46875 0.078125 0  0.484375 0.078125 0  0.5 0.078125 0  0.515625 0.078125 0  0.53125 0.078125 0  0.546875 0.078125 0  0.5625 0.078125 0  0.578125 0.078125 0  0.59375 0.078125 0  0.609375 0.078125 0  0.625 0.078125 0  0.640625 0.078125 0  0.65625 0.078125 0  0.671875 0.078125 0  0.6875 0.078125 0  0.703125 0.078125 0  0.71875 0.078125 0  0.734375 0.078125 0  0.75 0.078125 0  0.765625 0.078125 0  0.78125 0.078125 0  0.796875 0.078125 0  0.8125 0.078125 0  0.828125 0.078125 0  0.84375 0.078125 0  0.859375 0.078125 0  0.875 0.078125 0  0.890625 0.078125 0  0.90625 0.078125 0  0.921875 0.078125 0  0.9375 0.078125 0  0.953125 0.078125 0  0.96875 0.078125 0  0.984375 0.078125 0  1 0.078125 0  0 0.09375 0  0.015625 0.09375 0  0.03125 0.09375 0  0.046875 0.09375 0  0.0625 0.09375 0  0.078125 0.09375 0  0.09375 0.09375 0  0.109375 0.09375 0  0.125 0.09375 0  0.140625 0.09375 0  0.15625 0.09375 0  0.171875 0.09375 0  0.1875 0.09375 0  0.203125 0.09375 0  0.21875 0.09375 0  0.234375 0.09375 0  0.25 0.09375 0  0.265625 0.09375 0  0.28125 0.09375 0  0.296875 0.09375 0  0.3125 0.09375 0  0.328125 0.09375 0  0.34375 0.09375 0  0.359375 0.09375 0  0.375 0.09375 0  0.390625 0.09375 0  0.40625 0.09375 0  0.421875 0.09375 0  0.4375 0.09375 0  0.453125 0.09375 0  0.46875 0.09375 0  0.484375 0.09375 0  0.5 0.09375 0  0.515625 0.09375 0  0.53125 0.09375 0  0.546875 0.09375 0  0.5625 0.09375 0  0.578125 0.09375 0  0.59375 0.09375 0  0.609375 0.09375 0  0.625 0.09375 0  0.640625 0.09375 0  0.65625 0.09375 0  0.671875 0.09375 0  0.6875 0.09375 0  0.703125 0.09375 0  0.71875 0.09375 0  0.734375 0.09375 0  0.75 0.09375 0  0.765625 0.09375 0  0.78125 0.09375 0  0.796875 0.09375 0  0.8125 0.09375 0  0.828125 0.09375 0  0.84375 0.09375 0  0.859375 0.09375 0  0.875 0.09375 0  0.890625 0.09375 0  0.90625 0.09375 0  0.921875 0.09375 0  0.9375 0.09375 0  0.953125 0.09375 0  0.96875 0.09375 0  0.984375 0.09375 0  1 0.09375 0  0 0.109375 0  0.015625 0.109375 0  0.03125 0.109375 0  0.046875 0.109375 0  0.0625 0.109375 0  0.078125 0.109375 0  0.09375 0.109375 0  0.109375 0.109375 0  0.125 0.109375 0  0.140625 0.109375 0  0.15625 0.109375 0  0.171875 0.109375 0  0.1875 0.109375 0  0.203125 0.109375 0  0.21875 0.109375 0  0.234375 0.109375 0  0.25 0.109375 0  0.265625 0.109375 0  0.28125 0.109375 0  0.296875 0.109375 0  0.3125 0.109375 0  0.328125 0.109375 0  0.34375 0.109375 0  0.359375 0.109375 0  0.375 0.109375 0  0.390625 0.109375 0  0.40625 0.109375 0  0.421875 0.109375 0  0.4375 0.109375 0  0.453125 0.109375 0  0.46875 0.109375 0  0.484375 0.109375 0  0.5 0.109375 0  0.515625 0.109375 0  0.53125 0.109375 0  0.546875 0.109375 0  0.5625 0.109375 0  0.578125 0.109375 0  0.59375 0.109375 0  0.609375 0.109375 0  0.625 0.109375 0  0.640625 0.109375 0  0.65625 0.109375 0  0.671875 0.109375 0  0.6875 0.109375 0  0.703125 0.109375 0  0.71875 0.109375 0  0.734375 0.109375 0  0.75 0.109375 0  0.765625 0.109375 0  0.78125 0.109375 0  0.796875 0.109375 0  0.8125 0.109375 0  0.828125 0.109375 0  0.84375 0.109375 0  0.859375 0.109375 0  0.875 0.109375 0  0.890625 0.109375 0  0.90625 0.109375 0  0.921875 0.109375 0  0.9375 0.109375 0  0.953125 0.109375 0  0.96875 0.109375 0  0.984375 0.109375 0  1 0.109375 0  0 0.125 0  0.015625 0.125 0  0.03125 0.125 0  0.046875 0.125 0  0.0625 0.125 0  0.078125 0.125 0  0.09375 0.125 0  0.109375 0.125 0  0.125 0.12
[...]
<PointData  Scalars="f_6"> 
<DataArray  type="Float64"  Name="f_6"  format="ascii">-2.0000000000000000e+00  -1.9531250000000000e+00  -1.9062500000000000e+00  -1.8593750000000000e+00  -1.8125000000000000e+00  -1.7656250000000000e+00  -1.7187500000000000e+00  -1.6718750000000000e+00  -1.6250000000000000e+00  -1.5781250000000000e+00  -1.5312500000000000e+00  -1.4843750000000000e+00  -1.4375000000000000e+00  -1.3906250000000000e+00  -1.3437500000000000e+00  -1.2968750000000000e+00  -1.2500000000000000e+00  -1.2031250000000000e+00  -1.1562500000000000e+00  -1.1093750000000000e+00  -1.0625000000000000e+00  -1.0156250000000000e+00  -9.6875000000000000e-01  -9.2187500000000000e-01  -8.7500000000000000e-01  -8.2812500000000000e-01  -7.8125000000000000e-01  -7.3437500000000000e-01  -6.8750000000000000e-01  -6.4062500000000000e-01  -5.9375000000000000e-01  -5.4687500000000000e-01  -5.0000000000000000e-01  -4.5312500000000006e-01  -4.0625000000000000e-01  -3.5937500000000000e-01  -3.1250000000000000e-01  -2.6562500000000000e-01  -2.1875000000000000e-01  -1.7187500000000000e-01  -1.2500000000000000e-01  -7.8125000000000014e-02  -3.1250000000000000e-02  1.5625000000000000e-02  6.2500000000000000e-02  1.0937500000000000e-01  1.5625000000000000e-01  2.0312500000000000e-01  2.5000000000000000e-01  2.9687500000000000e-01  3.4375000000000000e-01  3.9062500000000000e-01  4.3750000000000000e-01  4.8437500000000000e-01  5.3125000000000000e-01  5.7812500000000000e-01  6.2500000000000000e-01  6.7187500000000000e-01  7.1875000000000000e-01  7.6562500000000000e-01  8.1250000000000000e-01  8.5937500000000000e-01  9.0625000000000000e-01  9.5312500000000000e-01  1.0000000000000000e+00  -2.0000000000000000e+00  -1.9136355253497810e+00  -1.8344676467229251e+00  -1.7609612601467810e+00  -1.6920920953301823e+00  -1.6270960043470721e+00  -1.5653684650771482e+00  -1.5064161022606894e+00  -1.4498292857067587e+00  -1.3952645749208699e+00  -1.3424323722507931e+00  -1.2910876466395378e+00  -1.2410226457150508e+00  -1.1920610001113487e+00  -1.1440528643307495e+00  -1.0968708652710015e+00  -1.0504067009242193e+00  -1.0045682744062530e+00  -9.5927727445539934e-01  -9.1446712805623276e-01  -8.7008125774099432e-01  -8.2607158329940333e-01  -7.8239722885969587e-01  -7.3902343874698884e-01  -6.9592073834512735e-01  -6.5306433130455355e-01  -6.1043367683791672e-01  -5.6801222715082700e-01  -5.2578735530119214e-01  -4.8375056910928899e-01  -4.4189821133144930e-01  -4.0023226576400617e-01  -3.5876199350415361e-01  -3.1750466344595302e-01  -2.7648487893289864e-01  -2.3573646817749924e-01  -1.9530586399227515e-01  -1.5526785359085052e-01  -1.1571250878640729e-01  -7.6784598255866698e-02  -4.1806544949059575e-02  -9.3076156679706371e-03  2.3903246554197542e-02  5.9070464168076410e-02  9.7504759925936824e-02  1.3916923273413645e-01  1.8231032454407692e-01  2.2625199089820580e-01  2.7068858639535376e-01  3.1546085793846718e-01  3.6047577595569641e-01  4.0567402317761964e-01  4.5101517592149948e-01  4.9647022843686489e-01  5.4201749066844473e-01  5.8764017759371534e-01  6.3332491109397571e-01  6.7906074458213306e-01  7.2483850217087420e-01  7.7065031478855461e-01  8.1648928356456096e-01  8.6234922739199504e-01  9.0822448692096491e-01  9.5410976636205491e-01  1.0000000000000000e+00  -2.0000000000000000e+00  -1.8775134743602722e+00  -1.7711287096083841e+00  -1.6770076502487954e+00  -1.5924604178605963e+00  -1.5155234895764291e+00  -1.4447182340247875e+00  -1.3789054403695074e+00  -1.3171924790882947e+00  -1.2588709783087364e+00  -1.2033732385164742e+00  -1.1502407551259091e+00  -1.0991009049240330e+00  -1.0496493312993431e+00  -1.0016364205710662e+00  -9.5485678324473600e-01  -9.0914098520704800e-01  -8.6434899187346259e-01  -8.2036493477325312e-01  -7.7709290757393423e-01  -7.3445356151555996e-01  -6.9238131572418138e-01  -6.5082205318637132e-01  -6.0973126164858760e-01  -5.6907265955363406e-01  -5.2881725592623552e-01  -4.8894272442250297e-01  -4.4943308468182752e-01  -4.1027879851208615e-01  -3.7147744723129844e-01  -3.3303561090536449e-01  -2.9497136530311507e-01  -2.5731800114351300e-01  -2.2013010450232387e-01  -1.8349255093113007e-01  -1.4752760878297744e-01  -1.1239277953715372e-01  -7.8360110388502296e-02  -4.5852280788791624e-02  -1.7280997842594879e-02  8.4567275514006689e-03  3.4528685111613985e-02  6.2609511451333769e-02  9.3966510771458747e-02  1.2927934280153444e-01  1.6748684646653200e-01  2.0757007454396537e-01  2.4888405265339253e-01  2.9104149674474206e-01  3.3380406940281854e-01  3.7701822270669894e-01  4.2058014083328282e-01  4.6441645207151339e-01  5.0847324715751629e-01  5.5270955664319854e-01  5.9709330861244114e-01  6.4159872220005465e-01  6.8620456506368244e-01  7.3089294931280935e-01  7.7564847341878274e-01  8.2045759207769442e-01  8.6530813908245463e-01  9.1018895392980981e-01  9.5508957852725462e-01  1.0000000000000000e+00  -2.0000000000000000e+00  -1.8441415570416828e+00  -1.7147361523699916e+00  -1.6045218087210718e+00  -1.5086084263661701e+00  -1.4235909907022797e+00  -1.3470291077048895e+00  -1.2771309201730305e+00  -1.2125540823894509e+00  -1.1522760958104370e+00  -1.0955072131591899e+00  -1.0416303486534069e+00  -9.9015864295331801e-01  -9.4070488062095670e-01  -8.9295905373965501e-01  -8.4667164231134162e-01  -8.0164098321177424e-01  -7.5770361568658384e-01  -7.1472683060518494e-01  -6.7260287374908345e-01  -6.3124439559811574e-01  -5.9058083160226882e-01  -5.5055548358849116e-01  -5.1112321306654362e-01  -4.7224883594459860e-01  -4.3390610717145472e-01  -3.9607708173356448e-01  -3.5875186973272738e-01  -3.2192908005248355e-01  -2.8561711107848736e-01  -2.4983740439110966e-01  -2.1463076793068281e-01  -1.8006790022430610e-01  -1.4626393265150348e-01  -1.1340026078657559e-01  -8.1756177137249642e-02  -5.1690776476411217e-02  -2.3902441700083155e-02  4.9980963346377128e-04  2.2463188021773092e-02  4.4106555742452022e-02  6.7757142455740924e-02  9.4717478490419477e-02  1.2490672466489049e-01  1.5815925404221012e-01  1.9392873578649189e-01  2.3159907451186001e-01  2.7067264842665695e-01  3.1078927852740335e-01  3.5169570022136609e-01  3.9321290463499814e-01  4.3521186537729950e-01  4.7759724437375495e-01  5.2029675147848831e-01  5.6325418013439188e-01  6.0642477801279626e-01  6.4977210403011942e-01  6.9326584415973314e-01  7.3688025659789824e-01  7.8059303749607256e-01  8.2438447224497968e-01  8.6823678293031969e-01  9.1213361118856529e-01  9.5605959381715366e-01  1.0000000000000000e+00  -2.0000000000000000e+00  -1.8131947816802030e+00  -1.6642278570072853e+00  -1.5413381926702501e+00  -1.4370519367526400e+00  -1.3464264256587848e+00  -1.2660790226037746e+00  -1.1936260889398076e+00  -1.1273457186455029e+00  -1.0659675562687265e+00  -1.0085375152941600e+00  -9.5432816035746382e-01  -9.0277779503419353e-01  -8.5344810028113660e-01  -8.0599406341018820e-01  -7.6014223599991082e-01  -7.1567475493043897e-01  -6.7241743166319845e-01  -6.3023077132161542e-01  -5.8900314137161747e-01  -5.4864553209611400e-01  -5.0908748054504893e-01  -4.7027383147248691e-01  -4.3216219103733111e-01  -3.9472132577690805e-01  -3.5793028433703167e-01  -3.2177789756208808e-01  -2.8626266374098158e-01  -2.5139369166253439e-01  -2.1719354883201264e-01  -1.8370393432330151e-01  -1.5099526373567138e-01  -1.1918360773098316e-01  -8.8458255884747719e-02  -5.9129151364460661e-02  -3.1794421622393029e-02  -7.3647944976613713e-03  1.4022189487635098e-02  3.3554923027950823e-02  5.2768864536610338e-02  7.3529438328141350e-02  9.7148153813407898e-02  1.2359653538971276e-01  1.5278365535547361e-01  1.8452221291592361e-01  2.1846976812536556e-01  2.5422483929032541e-01  2.9141818801397196e-01  3.2974726871684812e-01  3.6897654832024429e-01  4.0892583023462770e-01  4.4945717166716220e-01  4.9046390856771838e-01  5.3186233424829032e-01  5.7358563440308430e-01  6.1557951927423238e-01  6.5779907174789309e-01  7.0020645094723266e-01  7.4276919542297792e-01  7.8545894772263025e-01  8.2825047647583128e-01  8.7112090920527940e-01  9.1404911407697831e-01  9.5701518555279386e-01  1.0000000000000000e+00  -2.0000000000000000e+00  -1.7844647216020240e+00  -1.6188046767022950e+00  -1.4858426859098410e+00  -1.3752907954047162e+00  -1.2806740090889273e+00  -1.1977422077942181e+00  -1.1236045333801647e+00  -1.0562344404331809e+00  -9.9417449785134526e-01  -9.3635364338350524e-01  -8.8197025963861964e-01  -8.3041513981105264e-01  -7.8121939161988818e-01  -7.3401837384112079e-01  -6.8852620360052208e-01  -6.4451739680125619e-01  -6.0181343045545377e-01  -5.6027278068876507e-01  -5.1978347496868493e-01  -4.8025749097556780e-01  -4.4162648749186073e-01  -4.0383845238973348e-01  -3.6685503279884940e-01  -3.3065017512528971e-01  -2.9520961662350631e-01  -2.6053076031120259e-01  -2.2662342353777840e-01  -1.9351179820938325e-01  -1.6123795254137155e-01  -1.2986826449130362e-01  -9.9505662709249681e-02  -7.0314298993945187e-02  -4.2565474465541521e-02  -1.6684570553904439e-02  5.3762631875031025e-03  2.4432701081690499e-02  4.2197106300261411e-02  5.9895124050398749e-02  7.8871641314828975e-02  1.0009417922009513e-01  1.2370949908003662e-01  1.4973685389955008e-01  1.7810914845136766e-01  2.0867617414064513e-01  2.4120328450872139e-01  2.7541232651010400e-01  3.1102799562205746e-01  3.4780506000577288e-01  3.8553739410813520e-01  4.2405669631610637e-01  4.6322708248900279e-01  5.0293888398166608e-01  5.4310304254387043e-01  5.8364650395542250e-01  6.2450859293315542e-01  6.6563821273998813e-01  7.0699169245832649e-01  7.4853112642415076e-01  7.9022308149563913e-01  8.3203757673043566e-01  8.7394726333798833e-01  9.1592675036127447e-01  9.5795203431704423e-01  1.0000000000000000e+00  -2.0000000000000000e+00  -1.7577952456612487e+00  -1.5778354182877139e+00  -1.4367987668886943e+00  -1.3214833199302720e+00  -1.2239515310704785e+00  -1.1391838360413620e+00  -1.0638685547946372e+00  -9.9574157515444373e-01  -9.3320788912722907e-01  -8.7511516594706940e-01  -8.2061309314044095e-01  -7.6906305414806719e-01  -7.1997840327587426e-01  -6.7298393039665705e-01  -6.2778770328442246e-01  -5.8416110004947663e-01  -5.4192439468555786e-01  -5.0093620810383832e-01  -4.6108573446654538e-01  -4.2228700714406470e-01  -3.8447461980803516e-01  -3.4760041742012665e-01  -3.1163082824836263e-01  -2.7654607730558167e-01  -2.4234074689876328e-01  -2.0902446208580580e-01  -1.7662316552007803e-01  -1.4518131356141054e-01  -1.1476521351094567e-01  -8.5468506322518595e-02  -5.7425546389649570e-02  -3.0854842364668959e-02  -6.2203108137120992e-03  1.4603135575659874e-02  3.2205298984559476e-02  4.8645353222559903e-02  6.5315409753256795e-02  8.3137564260749711e-02  1.0272839745221164e-01  1.2426613815737365e-01  1.4785880938709350e-01  1.7353223267708315e-01  2.0123991040980183e-01  2.3087005068656805e-01  2.6225486925877095e-01  2.9519318661931176e-01  3.2947640795838085e-01  3.6490758157605113e-01  4.0131127179041759e-01  4.3853647843265953e-01  4.7645557799107630e-01  5.1496150232607285e-01  5.5396444799010303e-01  5.9338874594157942e-01  6.3317013576297931e-01  6.7325349382057798e-01  7.1359097972193419e-01  7.5414053631965861e-01  7.9486467510533998e-01  8.3572948561228344e-01  8.7670381705496359e-01  9.1775858971308721e-01  9.5886620135410916e-01  1.0000000000000000e+00  -2.0000000000000000e+00  -1.7330560326680620e+00  -1.5408035318770024e+00  -1.3932368058214761e+00  -1.2742408470255826e+00  -1.1745219533243991e+00  -1.0883941217367692e+00  -1.0122034921458547e+00  -9.4350400267916845e-01  -8.8060123074054686e-01  -8.2228743695631634e-01  -7.6768104470166010e-01  -7.1612574326678435e-01  -6.6712498385303931e-01  -6.2029822280965352e-01  -5.7535094476449333e-01  -5.3205366237100971e-01  -4.9022691897106496e-01  -4.4973042579197597e-01  -4.1045516705937846e-01  -3.7231771859134860e-01  -3.3525611365005459e-01  -2.9922663922146436e-01  -2.6420171140078413e-01  -2.3017033011837490e-01  -1.9713958826047684e-01  -1.6513529501847396e-01  -1.3420314127803243e-01  -1.0441090879898909e-01  -7.5852225406901716e-02  -4.8652780340951420e-02  -2.2983351022669886e-02  8.9681443528832005e-04  2.1061221784605070e-02  3.7913032841458166e-02  5.3338633446848464e-02  6.9096253969398738e-02  8.6164395335149344e-02  1.0461132578713160e-01  1.2463824607589434e-01  1.4638316657009437e-01  1.6992736763388064e-01  1.9529335701188713e-01  2.2244820982418845e-01  2.5130924893705431e-01  2.8175295522048244e-01  3.1362914274999132e-01  3.4677686801610313e-01  3.8103758654963304e-01  4.1626363304482467e-01  4.5232236763303779e-01  4.8909724871657040e-01  5.2648709934144577e-01  5.6440450114888929e-01  6.0277389605781284e-01  6.4152971035660455e-01  6.8061464705741026e-01  7.1997819628917392e-01  7.5957536402720960e-01  7.9936559699377918e-01  8.3931187355839454e-01  8.7937992955649480e-01  9.1953759008200175e-01  9.5975418138630531e-01  1.0000000000000000e+00  -2.0000000000000000e+00  -1.7101307272257267e+00  -1.5072756735742161e+00  -1.3543816881386879e+00  -1.2324946477082728e+00  -1.1310882694579989e+00  -1.0439083656328225e+00  -9.6702647452861545e-01  -8.9785890872929153e-01  -8.3464041458645555e-01  -7.7612616815378188e-01  -7.2141504399393386e-01  -6.6984050210371282e-01  -6.2090081644865125e-01  -5.7421306865718658e-01  -5.2948198328349005e-01  -4.8647831110887174e-01  -4.4502352696674996e-01  -4.0497884142431900e-01  -3.6623733917829460e-01  -3.2871855128524141e-01  -2.9236471546790266e-01  -2.5713807743104339e-01  -2.2301965033811627e-01  -1.9001038103146681e-01  -1.5813244253658670e-01  -1.2742876643072718e-01  -9.7964051868377075e-02  -6.9829394723683977e-02  -4.3152580907789236e-02  -1.8118304365264546e-02  4.9866910219374316e-03  2.5130218424798061e-02  4.1854054024584052e-02  5.6795650601346039e-02  7.1849598736038051e-02  8.8108345054272022e-02  1.0563459183081020e-01  1.2450509747673297e-01  1.4483009449413994e-01  1.6670091441322893e-01  1.9017413756644749e-01  2.1526561791239643e-01  2.4195032293801061e-01  2.7016578001697855e-01  2.9981855993611328e-01  3.3079356114406805e-01  3.6296433480640777e-01  3.9620226356155364e-01  4.3038330620621046e-01  4.6539211033809658e-01  5.0112394990072195e-01  5.3748514517425061e-01  5.7439256120619586e-01  6.1177262678417832e-01  6.4956016254821736e-01  6.8769718776328415e-01  7.2613179435014163e-01  7.6481712650622713e-01  8.0371047528417239e-01  8.4277248207102062e-01  8.8196643753061965e-01  9.2125765967211959e-01  9.6061293410911008e-01  1.0000000000000000e+00  -2.0000000000000000e+00  -1.6889114488831549e+00  -1.4768820376823208e+00  -1.3196039682826219e+00  -1.1954074121881073e+00  -1.0926615303416236e+00  -1.0046328710328372e+00  -9.2717458275629461e-01  -8.5759989006311266e-01  -7.9409376136092269e-01  -7.3538709563991855e-01  -6.8056699060593029e-01  -6.2896136209338571e-01  -5.8006609366632722e-01  -5.3349751483680141e-01  -4.8896051140812968e-01  -4.4622659395966102e-01  -4.0511849460140825e-01  -3.6549919411835974e-01  -3.2726426319906599e-01  -2.9033707732508307e-01  -2.5466581746198963e-01  -2.2022123718792108e-01  -1.8699559518074393e-01  -1.5500306721747462e-01  -1.2427948647161038e-01  -9.4881212786295646e-02  -6.6887843446338816e-02  -4.0412716445227446e-02  -1.5628304015585032e-02  7.1808822338801743e-03  2.7341578533056916e-02  4.4300804290800640e-02  5.9104621793695002e-02  7.3603634143828547e-02  8.9155765841685677e-02  1.0585293568084105e-01  1.2376052945708652e-01  1.4294437779485011e-01  1.6347612001070361e-01  1.8541625902223385e-01  2.0880265030628406e-01  2.3364465413324040e-01  2.5992168399847904e-01  2.8758498825673595e-01  3.1656194336292404e-01  3.4676220708375993e-01  3.7808464650390577e-01  4.1042382668396327e-01  4.4367521788036679e-01  4.7773881761241616e-01  5.1252129537397040e-01  5.4793697024863885e-01  5.8390797171746534e-01  6.2036388732448733e-01  6.5724112528880252e-01  6.9448214709736711e-01  7.3203466684188168e-01  7.6985087236338501e-01  8.0788669556566273e-01  8.4610114191089580e-01  8.8445567882284348e-01  9.2291367696674709e-01  9.6143989537801589e-01  1.0000000000000000e+00  -2.0000000000000000e+00  -1.6692962870070864e+00  -1.4493033044198627e+00  -1.2883858510512081e+00  -1.1623128701362777e+00  -1.0584736060893667e+00  -9.6973329718531942e-01  -8.9177254320708499e-01  -8.2182802750406703e-01  -7.5805028135856634e-01  -6.9915478596658176e-01  -6.4422195309926755e-01  -5.9257704170682102e-01  -5.4371514360677631e-01  -4.9725269347414519e-01  -4.5289519439342124e-01  -4.1041519903666812e-01  -3.6963697517088040e-01  -3.3042567974598019e-01  -2.9268033994320924e-01  -2.5633006623460258e-01  -2.2133146404263213e-01  -1.8766576501130894e-01  -1.5533653661024693e-01  -1.2436848202706904e-01  -9.4806310256031506e-02  -6.6714856908796180e-02  -4.0185001648569314e-02  -1.5351180836204315e-02  7.5611441192018894e-03  2.8018555634314969e-02  4.5294214828266156e-02  6.0264325001633354e-02  7.4504421586478214e-02  8.9358498338587458e-02  1.0531689480603502e-01  1.2238710237032012e-01  1.4061021252184466e-01  1.6003576423487728e-01  1.8071374873159063e-01  2.0268535135871871e-01  2.2597555050321472e-01  2.5058866431580190e-01  2.7650677066592921e-01  3.0369054564856252e-01  3.3208201817508753e-01  3.6160867732414159e-01  3.9218821744149268e-01  4.2373317879002703e-01  4.5615492101887745e-01  4.8936664685723053e-01  5.2328544373410446e-01  5.5783346872886941e-01  5.9293846809053929e-01  6.2853382550750314e-01  6.6455830418513817e-01  7.0095560849550054e-01  7.3767385355663306e-01  7.7466500053976795e-01  8.1188429270419771e-01  8.4928971118405627e-01  8.8684145888311094e-01  9.2450147399400950e-01  9.6223297043620626e-01  1.0000000000000000e+00  -2.0000000000000000e+00  -1.6511882581615236e+00  -1.4242614922515937e+00  -1.2602968125490710e+00  -1.1326736280429088e+00  -1.0279180732779449e+00  -9.3856103255455614e-01  -8.6014747203971842e-01  -7.8985775923264501e-01  -7.2581907890350206e-01  -6.6673756353771441e-01  -6.1169022470571899e-01  -5.6000140146144495e-01  -5.1116627849747664e-01  -4.6480183536038910e-01  -4.2061444323112440e-01  -3.7837794606741226e-01  -3.3791856853826330e-01  -2.9910462065735932e-01  -2.6184051060503039e-01  -2.2606350313021831e-01  -1.9174014207576601e-01  -1.5886138131824815e-01  -1.2743868160733424e-01  -9.7502240020062331e-02  -6.9101094198731269e-02  -4.2306596321989319e-02  -1.7222041622082494e-02  5.9997957251573288e-03  2.7090473697618904e-02  4.4883905949759488e-02  6.0075464596897041e-02  7.4220613990318776e-02  8.8652760062162092e-02  1.0400904281800800e-01  1.2036621267354695e-01  1.3776836647255974e-01  1.5625745402509478e-01  1.7587471789122369e-01  1.9665775932206300e-01  2.1863584717783566e-01  2.4182553603205423e-01  2.6622768196082330e-01  2.9182618870087340e-01  3.1858840549649725e-01  3.4646690636472210e-01  3.7540226659622611e-01  4.0532636714789705e-01  4.3616575001577473e-01  4.6784464054788572e-01  5.0028740506352409e-01  5.3342036397634751e-01  5.6717299284219491e-01  6.0147860640831929e-01  6.3627464242984788e-01  6.7150265744874627e-01  7.0710812914286392e-01  7.4304013834938198e-01  7.7925098353485578e-01  8.1569576352730377e-01  8.5233195123802064e-01  8.8911897153153452e-01  9.2601778968997395e-01  9.6299051237279942e-01  1.0000000000000000e+00  -2.0000000000000000e+00  -1.6344949795811698e+00  -1.4015132323501744e+00  -1.2349756881596792e+00  -1.1060510954901297e+00  -1.0005092467052605e+00  -9.1060340357618419e-01  -8.3177237828313044e-01  -7.6115553587225560e-01  -6.9686467791462170e-01  -6.3760070195591256e-01  -5.8243930096842744e-01  -5.3070490688259409e-01  -4.8189326825110185e-01  -4.3562214579170178e-01  -3.9159898694558198e-01  -3.4959930091833830e-01  -3.0945215421430450e-01  -2.7103085690754364e-01  -2.3424754732236852e-01  -1.9904898159885845e-01  -1.6541044340587729e-01  -1.3332887849078315e-01  -1.0281869775513203e-01  -7.3911346530609573e-02  -4.6658468809594872e-02  -2.1140990270416368e-02  2.5130853715557558e-03  2.4100334529859265e-02  4.2935027417251373e-02  5.8644154199520689e-02  7.27963