<?xml version="1.0"?>
<VTKFile type="UnstructuredGrid"  version="0.1"  >
<UnstructuredGrid>
<Piece  NumberOfPoints="4225" NumberOfCells="8192">
<Points>
<DataArray  type="Float64"  NumberOfComponents="3"  format="ascii">0 0 0  0.015625 0 0  0.03125 0 0  0.046875 0 0  0.0625 0 0  0.078125 0 0  0.09375 0 0  0.109375 0 0  0.125 0 0  0.140625 0 0  0.15625 0 0  0.171875 0 0  0.1875 0 0  0.203125 0 0  0.21875 0 0  0.234375 0 0  0.25 0 0  0.265625 0 0  0.28125 0 0  0.296875 0 0  0.3125 0 0  0.328125 0 0  0.34375 0 0  0.359375 0 0  0.375 0 0  0.390625 0 0  0.40625 0 0  0.421875 0 0  0.4375 0 0  0.453125 0 0  0.46875 0 0  0.484375 0 0  0.5 0 0  0.515625 0 0  0.53125 0 0  0.546875 0 0  0.5625 0 0  0.578125 0 0  0.59375 0 0  0.609375 0 0  0.625 0 0  0.640625 0 0  0.65625 0 0  0.671875 0 0  0.6875 0 0  0.703125 0 0  0.71875 0 0  0.734375 0 0  0.75 0 0  0.765625 0 0  0.78125 0 0  0.796875 0 0  0.8125 0 0  0.828125 0 0  0.84375 0 0  0.859375 0 0  0.875 0 0  0.890625 0 0  0.90625 0 0  0.921875 0 0  0.9375 0 0  0.953125 0 0  0.96875 0 0  0.984375 0 0  1 0 0  0 0.015625 0  0.015625 0.015625 0  0.03125 0.015625 0  0.046875 0.015625 0  0.0625 0.015625 0  0.078125 0.015625 0  0.09375 0.015625 0  0.109375 0.015625 0  0.125 0.015625 0  0.140625 0.015625 0  0.15625 0.015625 0  0.171875 0.015625 0  0.1875 0.015625 0  0.203125 0.015625 0  0.21875 0.015625 0  0.234375 0.015625 0  0.25 0.015625 0  0.265625 0.015625 0  0.28125 0.015625 0  0.296875 0.015625 0  0.3125 0.015625 0  0.328125 0.015625 0  0.34375 0.015625 0  0.359375 0.015625 0  0.375 0.015625 0  0.390625 0.015625 0  0.40625 0.015625 0  0.421875 0.015625 0  0.4375 0.015625 0  0.453125 0.015625 0  0.46875 0.015625 0  0.484375 0.015625 0  0.5 0.015625 0  0.515625 0.015625 0  0.53125 0.015625 0  0.546875 0.015625 0  0.5625 0.015625 0  0.578125 0.015625 0  0.59375 0.015625 0  0.609375 0.015625 0  0.625 0.015625 0  0.640625 0.015625 0  0.65625 0.015625 0  0.671875 0.015625 0  0.6875 0.015625 0  0.703125 0.015625 0  0.71875 0.015625 0  0.734375 0.015625 0  0.75 0.015625 0  0.765625 0.015625 0  0.78125 0.015625 0  0.796875 0.015625 0  0.8125 0.015625 0  0.828125 0.015625 0  0.84375 0.015625 0  0.859375 0.015625 0  0.875 0.015625 0  0.890625 0.015625 0  0.90625 0.015625 0  0.921875 0.015625 0  0.9375 0.015625 0  0.953125 0.015625 0  0.96875 0.015625 0  0.984375 0.015625 0  1 0.015625 0  0 0.03125 0  0.015625 0.03125 0  0.03125 0.03125 0  0.046875 0.03125 0  0.0625 0.03125 0  0.078125 0.03125 0  0.09375 0.03125 0  0.109375 0.03125 0  0.125 0.03125 0  0.140625 0.03125 0  0.15625 0.03125 0  0.171875 0.03125 0  0.1875 0.03125 0  0.203125 0.03125 0  0.21875 0.03125 0  0.234375 0.03125 0  0.25 0.03125 0  0.265625 0.03125 0  0.28125 0.03125 0  0.296875 0.03125 0  0.3125 0.03125 0  0.328125 0.03125 0  0.34375 0.03125 0  0.359375 0.03125 0  0.375 0.03125 0  0.390625 0.03125 0  0.40625 0.03125 0  0.421875 0.03125 0  0.4375 0.03125 0  0.453125 0.03125 0  0.46875 0.03125 0  0.484375 0.03125 0  0.5 0.03125 0  0.515625 0.03125 0  0.53125 0.03125 0  0.546875 0.03125 0  0.5625 0.03125 0  0.578125 0.03125 0  0.59375 0.03125 0  0.609375 0.03125 0  0.625 0.03125 0  0.640625 0.03125 0  0.65625 0.03125 0  0.671875 0.03125 0  0.6875 0.03125 0  0.703125 0.03125 0  0.71875 0.03125 0  0.734375 0.03125 0  0.75 0.03125 0  0.765625 0.03125 0  0.78125 0.03125 0  0.796875 0.03125 0  0.8125 0.03125 0  0.828125 0.03125 0  0.84375 0.03125 0  0.859375 0.03125 0  0.875 0.03125 0  0.890625 0.03125 0  0.90625 0.03125 0  0.921875 0.03125 0  0.9375 0.03125 0  0.953125 0.03125 0  0.96875 0.03125 0  0.984375 0.03125 0  1 0.03125 0  0 0.046875 0  0.015625 0.046875 0  0.03125 0.046875 0  0.046875 0.046875 0  0.0625 0.046875 0  0.078125 0.046875 0  0.09375 0.046875 0  0.109375 0.046875 0  0.125 0.046875 0  0.140625 0.046875 0  0.15625 0.046875 0  0.171875 0.046875 0  0.1875 0.046875 0  0.203125 0.046875 0  0.21875 0.046875 0  0.234375 0.046875 0  0.25 0.046875 0  0.265625 0.046875 0  0.28125 0.046875 0  0.296875 0.046875 0  0.3125 0.046875 0  0.328125 0.046875 0  0.34375 0.046875 0  0.359375 0.046875 0  0.375 0.046875 0  0.390625 0.046875 0  0.40625 0.046875 0  0.421875 0.046875 0  0.4375 0.046875 0  0.453125 0.046875 0  0.46875 0.046875 0  0.484375 0.046875 0  0.5 0.046875 0  0.515625 0.046875 0  0.53125 0.046875 0  0.546875 0.046875 0  0.5625 0.046875 0  0.578125 0.046875 0  0.59375 0.046875 0  0.609375 0.046875 0  0.625 0.046875 0  0.640625 0.046875 0  0.65625 0.046875 0  0.671875 0.046875 0  0.6875 0.046875 0  0.703125 0.046875 0  0.71875 0.046875 0  0.734375 0.046875 0  0.75 0.046875 0  0.765625 0.046875 0  0.78125 0.046875 0  0.796875 0.046875 0  0.8125 0.046875 0  0.828125 0.046875 0  0.84375 0.046875 0  0.859375 0.046875 0  0.875 0.046875 0  0.890625 0.046875 0  0.90625 0.046875 0  0.921875 0.046875 0  0.9375 0.046875 0  0.953125 0.046875 0  0.96875 0.046875 0  0.984375 0.046875 0  1 0.046875 0  0 0.0625 0  0.015625 0.0625 0  0.03125 0.0625 0  0.046875 0.0625 0  0.0625 0.0625 0  0.078125 0.0625 0  0.09375 0.0625 0  0.109375 0.0625 0  0.125 0.0625 0  0.140625 0.0625 0  0.15625 0.0625 0  0.171875 0.0625 0  0.1875 0.0625 0  0.203125 0.0625 0  0.21875 0.0625 0  0.234375 0.0625 0  0.25 0.0625 0  0.265625 0.0625 0  0.28125 0.0625 0  0.296875 0.0625 0  0.3125 0.0625 0  0.328125 0.0625 0  0.34375 0.0625 0  0.359375 0.0625 0  0.375 0.0625 0  0.390625 0.0625 0  0.40625 0.0625 0  0.421875 0.0625 0  0.4375 0.0625 0  0.453125 0.0625 0  0.46875 0.0625 0  0.484375 0.0625 0  0.5 0.0625 0  0.515625 0.0625 0  0.53125 0.0625 0  0.546875 0.0625 0  0.5625 0.0625 0  0.578125 0.0625 0  0.59375 0.0625 0  0.609375 0.0625 0  0.625 0.0625 0  0.640625 0.0625 0  0.65625 0.0625 0  0.671875 0.0625 0  0.6875 0.0625 0  0.703125 0.0625 0  0.71875 0.0625 0  0.734375 0.0625 0  0.75 0.0625 0  0.765625 0.0625 0  0.78125 0.0625 0  0.796875 0.0625 0  0.8125 0.0625 0  0.828125 0.0625 0  0.84375 0.0625 0  0.859375 0.0625 0  0.875 0.0625 0  0.890625 0.0625 0  0.90625 0.0625 0  0.921875 0.0625 0  0.9375 0.0625 0  0.953125 0.0625 0  0.96875 0.0625 0  0.984375 0.0625 0  1 0.0625 0  0 0.078125 0  0.015625 0.078125 0  0.03125 0.078125 0  0.046875 0.078125 0  0.0625 0.078125 0  0.078125 0.078125 0  0.09375 0.078125 0  0.109375 0.078125 0  0.125 0.078125 0  0.140625 0.078125 0  0.15625 0.078125 0  0.171875 0.078125 0  0.1875 0.078125 0  0.203125 0.078125 0  0.21875 0.078125 0  0.234375 0.078125 0  0.25 0.078125 0  0.265625 0.078125 0  0.28125 0.078125 0  0.296875 0.078125 0  0.3125 0.078125 0  0.328125 0.078125 0  0.34375 0.078125 0  0.359375 0.078125 0  0.375 0.078125 0  0.390625 0.078125 0  0.40625 0.078125 0  0.421875 0.078125 0  0.4375 0.078125 0  0.453125 0.078125 0  0.46875 0.078125 0  0.484375 0.078125 0  0.5 0.078125 0  0.515625 0.078125 0  0.53125 0.078125 0  0.546875 0.078125 0  0.5625 0.078125 0  0.578125 0.078125 0  0.59375 0.078125 0  0.609375 0.078125 0  0.625 0.078125 0  0.640625 0.078125 0  0.65625 0.078125 0  0.671875 0.078125 0  0.6875 0.078125 0  0.703125 0.078125 0  0.71875 0.078125 0  0.734375 0.078125 0  0.75 0.078125 0  0.765625 0.078125 0  0.78125 0.078125 0  0.796875 0.078125 0  0.8125 0.078125 0  0.828125 0.078125 0  0.84375 0.078125 0  0.859375 0.078125 0  0.875 0.078125 0  0.890625 0.078125 0  0.90625 0.078125 0  0.921875 0.078125 0  0.9375 0.078125 0  0.953125 0.078125 0  0.96875 0.078125 0  0.984375 0.078125 0  1 0.078125 0  0 0.09375 0  0.015625 0.09375 0  0.03125 0.09375 0  0.046875 0.09375 0  0.0625 0.09375 0  0.078125 0.09375 0  0.09375 0.09375 0  0.109375 0.09375 0  0.125 0.09375 0  0.140625 0.09375 0  0.15625 0.09375 0  0.171875 0.09375 0  0.1875 0.09375 0  0.203125 0.09375 0  0.21875 0.09375 0  0.234375 0.09375 0  0.25 0.09375 0  0.265625 0.09375 0  0.28125 0.09375 0  0.296875 0.09375 0  0.3125 0.09375 0  0.328125 0.09375 0  0.34375 0.09375 0  0.359375 0.09375 0  0.375 0.09375 0  0.390625 0.09375 0  0.40625 0.09375 0  0.421875 0.09375 0  0.4375 0.09375 0  0.453125 0.09375 0  0.46875 0.09375 0  0.484375 0.09375 0  0.5 0.09375 0  0.515625 0.09375 0  0.53125 0.09375 0  0.546875 0.09375 0  0.5625 0.09375 0  0.578125 0.09375 0  0.59375 0.09375 0  0.609375 0.09375 0  0.625 0.09375 0  0.640625 0.09375 0  0.65625 0.09375 0  0.671875 0.09375 0  0.6875 0.09375 0  0.703125 0.09375 0  0.71875 0.09375 0  0.734375 0.09375 0  0.75 0.09375 0  0.765625 0.09375 0  0.78125 0.09375 0  0.796875 0.09375 0  0.8125 0.09375 0  0.828125 0.09375 0  0.84375 0.09375 0  0.859375 0.09375 0  0.875 0.09375 0  0.890625 0.09375 0  0.90625 0.09375 0  0.921875 0.09375 0  0.9375 0.09375 0  0.953125 0.09375 0  0.96875 0.09375 0  0.984375 0.09375 0  1 0.09375 0  0 0.109375 0  0.015625 0.109375 0  0.03125 0.109375 0  0.046875 0.109375 0  0.0625 0.109375 0  0.078125 0.109375 0  0.09375 0.109375 0  0.109375 0.109375 0  0.125 0.109375 0  0.140625 0.109375 0  0.15625 0.109375 0  0.171875 0.109375 0  0.1875 0.109375 0  0.203125 0.109375 0  0.21875 0.109375 0  0.234375 0.109375 0  0.25 0.109375 0  0.265625 0.109375 0  0.28125 0.109375 0  0.296875 0.109375 0  0.3125 0.109375 0  0.328125 0.109375 0  0.34375 0.109375 0  0.359375 0.109375 0  0.375 0.109375 0  0.390625 0.109375 0  0.40625 0.109375 0  0.421875 0.109375 0  0.4375 0.109375 0  0.453125 0.109375 0  0.46875 0.109375 0  0.484375 0.109375 0  0.5 0.109375 0  0.515625 0.109375 0  0.53125 0.109375 0  0.546875 0.109375 0  0.5625 0.109375 0  0.578125 0.109375 0  0.59375 0.109375 0  0.609375 0.109375 0  0.625 0.109375 0  0.640625 0.109375 0  0.65625 0.109375 0  0.671875 0.109375 0  0.6875 0.109375 0  0.703125 0.109375 0  0.71875 0.109375 0  0.734375 0.109375 0  0.75 0.109375 0  0.765625 0.109375 0  0.78125 0.109375 0  0.796875 0.109375 0  0.8125 0.109375 0  0.828125 0.109375 0  0.84375 0.109375 0  0.859375 0.109375 0  0.875 0.109375 0  0.890625 0.109375 0  0.90625 0.109375 0  0.921875 0.109375 0  0.9375 0.109375 0  0.953125 0.109375 0  0.96875 0.109375 0  0.984375 0.109375 0  1 0.109375 0  0 0.125 0  0.015625 0.125 0  0.03125 0.125 0  0.046875 0.125 0  0.0625 0.125 0  0.078125 0.125 0  0.09375 0.125 0  0.109375 0.125 0  0.125 0.12
[...]
<PointData  Scalars="f_6"> 
<DataArray  type="Float64"  Name="f_6"  format="ascii">-2.0000000000000000e+00  -1.9531250000000000e+00  -1.9062500000000000e+00  -1.8593750000000000e+00  -1.8125000000000000e+00  -1.7656250000000000e+00  -1.7187500000000000e+00  -1.6718750000000000e+00  -1.6250000000000000e+00  -1.5781250000000000e+00  -1.5312500000000000e+00  -1.4843750000000000e+00  -1.4375000000000000e+00  -1.3906250000000000e+00  -1.3437500000000000e+00  -1.2968750000000000e+00  -1.2500000000000000e+00  -1.2031250000000000e+00  -1.1562500000000000e+00  -1.1093750000000000e+00  -1.0625000000000000e+00  -1.0156250000000000e+00  -9.6875000000000000e-01  -9.2187500000000000e-01  -8.7500000000000000e-01  -8.2812500000000000e-01  -7.8125000000000000e-01  -7.3437500000000000e-01  -6.8750000000000000e-01  -6.4062500000000000e-01  -5.9375000000000000e-01  -5.4687500000000000e-01  -4.9999999999999994e-01  -4.5312500000000000e-01  -4.0625000000000000e-01  -3.5937500000000000e-01  -3.1250000000000000e-01  -2.6562500000000000e-01  -2.1875000000000003e-01  -1.7187500000000000e-01  -1.2500000000000000e-01  -7.8125000000000000e-02  -3.1250000000000000e-02  1.5625000000000000e-02  6.2500000000000000e-02  1.0937500000000000e-01  1.5625000000000000e-01  2.0312500000000000e-01  2.5000000000000000e-01  2.9687500000000000e-01  3.4375000000000000e-01  3.9062500000000000e-01  4.3750000000000000e-01  4.8437500000000000e-01  5.3125000000000000e-01  5.7812500000000000e-01  6.2500000000000000e-01  6.7187500000000000e-01  7.1875000000000000e-01  7.6562500000000000e-01  8.1250000000000000e-01  8.5937500000000000e-01  9.0625000000000000e-01  9.5312500000000000e-01  1.0000000000000000e+00  -2.0000000000000000e+00  -1.9132718006880423e+00  -1.8332350571127687e+00  -1.7584629478342828e+00  -1.6880334306745299e+00  -1.6212766634191624e+00  -1.5576730444215314e+00  -1.4968038842065030e+00  -1.4383237020718465e+00  -1.3819428172542525e+00  -1.3274154881217211e+00  -1.2745313548049493e+00  -1.2231090084171512e+00  -1.1729910141453175e+00  -1.1240399750482075e+00  -1.0761353673476854e+00  -1.0291709631607782e+00  -9.8305270993200067e-01  -9.3769697093191662e-01  -8.9302905544078981e-01  -8.4898198486536436e-01  -8.0549545466220052e-01  -7.6251496333146651e-01  -7.1999109024560337e-01  -6.7787891498830166e-01  -6.3613758405495402e-01  -5.9473004949797048e-01  -5.5362303328013962e-01  -5.1278731261569399e-01  -4.7219845535945615e-01  -4.3183807085206521e-01  -3.9169524723468530e-01  -3.5176678311324389e-01  -3.1205353275547776e-01  -2.7255345280639220e-01  -2.3327060097529356e-01  -1.9426681139857244e-01  -1.5564949855756094e-01  -1.1735339407929592e-01  -7.9135898860673112e-02  -4.4580992227111198e-02  -1.1929384696600383e-02  2.1762084192224501e-02  5.7385068377719679e-02  9.6133388235168205e-02  1.3800962296119884e-01  1.8130772385974919e-01  2.2537323262662004e-01  2.6991172374458666e-01  3.1477043441070657e-01  3.5986040938231112e-01  4.0512505367182594e-01  4.5052585291345237e-01  4.9603519357641457e-01  5.4163243402056005e-01  5.8730160087941130e-01  6.3302996004411372e-01  6.7880708762323727e-01  7.2462424121255187e-01  7.7047391893268380e-01  8.1634953966179258e-01  8.6224520335162935e-01  9.0815550498897901e-01  9.5407538447984863e-01  1.0000000000000000e+00  -2.0000000000000000e+00  -1.8765488645974691e+00  -1.7679244976337274e+00  -1.6707169834813378e+00  -1.5825764108065661e+00  -1.5018043410984740e+00  -1.4271259632834559e+00  -1.3575564262250766e+00  -1.2923177420368059e+00  -1.2307843796542217e+00  -1.1724460840694273e+00  -1.1168815735167141e+00  -1.0637394050103719e+00  -1.0127237332894596e+00  -9.6358350910752988e-01  -9.1610415441646464e-01  -8.7010105837893081e-01  -8.2541443581783658e-01  -7.8190522120357797e-01  -7.3945176126777235e-01  -6.9794713275163911e-01  -6.5729695809465605e-01  -6.1741762730098260e-01  -5.7823486313525130e-01  -5.3968259248869410e-01  -5.0170211253315000e-01  -4.6424157161274587e-01  -4.2725583281284157e-01  -3.9070687115960473e-01  -3.5456498626428973e-01  -3.1881123916930665e-01  -2.8344134982472047e-01  -2.4846983161970798e-01  -2.1392821163957690e-01  -1.7984498176371830e-01  -1.4623182618337230e-01  -1.1324362957388347e-01  -8.1393809546538645e-02  -5.0934019563358406e-02  -2.3026602037631159e-02  3.0223210932729806e-03  2.9784093592378300e-02  5.8753756326908456e-02  9.0820085976660012e-02  1.2663886160175430e-01  1.6522237974987855e-01  2.0559803985117792e-01  2.4714848290214428e-01  2.8950322794102018e-01  3.3243460451592871e-01  3.7579614944671164e-01  4.1948895239154033e-01  4.6344316440556899e-01  5.0760748737164640e-01  5.5194294162641422e-01  5.9641900945297144e-01  6.4101115167380684e-01  6.8569914923628450e-01  7.3046595829428618e-01  7.7529689485639075e-01  8.2017903636285694e-01  8.6510076875574604e-01  9.1005143212443751e-01  9.5502103293041529e-01  1.0000000000000000e+00  -2.0000000000000000e+00  -1.8423642301291345e+00  -1.7089832176185580e+00  -1.5935595099612836e+00  -1.4918772269347695e+00  -1.4009917596370169e+00  -1.3187718662859158e+00  -1.2436288459320322e+00  -1.1743491543625078e+00  -1.1099867225996425e+00  -1.0497911943163363e+00  -9.9315861440844633e-01  -9.3959663790336645e-01  -8.8869941682703779e-01  -8.4012911028918025e-01  -7.9360203392398077e-01  -7.4887812673071141e-01  -7.0575283424970081e-01  -6.6405078166262854e-01  -6.2362079406383186e-01  -5.8433194706273739e-01  -5.4607041976184123e-01  -5.0873698740317441e-01  -4.7224504151428903e-01  -4.3651906716172195e-01  -4.0149354400399090e-01  -3.6711227502576521e-01  -3.3332819720894785e-01  -3.0010382863537716e-01  -2.6741273552402128e-01  -2.3524288521681780e-01  -2.0360358983703197e-01  -1.7253846864867894e-01  -1.4214205114915465e-01  -1.1253571779990132e-01  -8.3717745508557470e-02  -5.5709660495019762e-02  -3.0675910458953529e-02  -7.7937719850890439e-03  1.4423816263845590e-02  3.6867837980484576e-02  6.1499709619959528e-02  8.9508642959963233e-02  1.2050265760025761e-01  1.5437959244531049e-01  1.9064299458538317e-01  2.2871357289293964e-01  2.6811943118975912e-01  3.0851810060142093e-01  3.4966860626527646e-01  3.9140063149706644e-01  4.3359144204205469e-01  4.7615036494563701e-01  5.1900864987818840e-01  5.6211283566047909e-01  6.0542034363225372e-01  6.4889648796185739e-01  6.9251239935380793e-01  7.3624354787191737e-01  7.8006866583573653e-01  8.2396894217749861e-01  8.6792740318406036e-01  9.1192842182260958e-01  9.5595731511737514e-01  1.0000000000000000e+00  -2.0000000000000000e+00  -1.8104077065118520e+00  -1.6554685375854312e+00  -1.5251180290457655e+00  -1.4129396424534140e+00  -1.3146287319991115e+00  -1.2271763031807637e+00  -1.1484069810985480e+00  -1.0767034844238699e+00  -1.0108349191414805e+00  -9.4984566035755535e-01  -8.9298106679750777e-01  -8.3963639925420230e-01  -7.8932082197404430e-01  -7.4163148297873538e-01  -6.9623449694530237e-01  -6.5285076045142931e-01  -6.1124521837258383e-01  -5.7121864069358119e-01  -5.3260125756010912e-01  -4.9524779409614850e-01  -4.5903358020047125e-01  -4.2385150637793390e-01  -3.8960966935739377e-01  -3.5622961041998902e-01  -3.2364509987643691e-01  -2.9180146341852414e-01  -2.6065548336515881e-01  -2.3017597314425003e-01  -2.0034533393582540e-01  -1.7116304446242611e-01  -1.4265384211903215e-01  -1.1488888097188880e-01  -8.8052560853257814e-02  -6.2570494952893727e-02  -3.8548944911189445e-02  -1.6774738416170828e-02  3.0979296499788768e-03  2.2723988744653551e-02  4.3104488067462227e-02  6.5127973464008226e-02  8.9838263947012012e-02  1.1727844829272725e-01  1.4730230901909672e-01  1.7973385599384686e-01  2.1425643325340427e-01  2.5049382594543823e-01  2.8809756836253153e-01  3.2678113700962791e-01  3.6632108844668970e-01  4.0654632823422321e-01  4.4732581933397464e-01  4.8855820345673623e-01  5.3016391153499076e-01  5.7207940750505892e-01  6.1425304145370674e-01  6.5664205718756119e-01  6.9921041234517256e-01  7.4192716800383862e-01  7.8476527843713983e-01  8.2770066332734082e-01  8.7071147998038734e-01  9.1377753686456553e-01  9.5687980571647546e-01  1.0000000000000000e+00  -2.0000000000000000e+00  -1.7804821151632344e+00  -1.6066757236023497e+00  -1.4639905629339722e+00  -1.3435834924625389e+00  -1.2397498347682492e+00  -1.1486262008353136e+00  -1.0674922086515508e+00  -9.9437024499142790e-01  -9.2778402701191742e-01  -8.6660662354454965e-01  -8.0996127718459521e-01  -7.5715465167654139e-01  -7.0763068624512859e-01  -6.6093794453268184e-01  -6.1670603789577905e-01  -5.7462829708472096e-01  -5.3444883998186266e-01  -4.9595279443941304e-01  -4.5895882909245700e-01  -4.2331340512365856e-01  -3.8888633855575933e-01  -3.5556738736355520e-01  -3.2326367199665862e-01  -2.9189781734916215e-01  -2.6140677810127083e-01  -2.3174137511840895e-01  -2.0286661099582798e-01  -1.7476284701967759e-01  -1.4742802332862739e-01  -1.2088159227954620e-01  -9.5172118437877526e-02  -7.0394636101596075e-02  -4.6678412767045208e-02  -2.5717376509901198e-02  -6.8027817056566468e-03  1.1134022511965637e-02  2.8773912906001370e-02  4.7485770308288447e-02  6.8146393725622229e-02  9.0701303861074098e-02  1.1544692441135303e-01  1.4246457724483710e-01  1.7169427418955510e-01  2.0299708925757592e-01  2.3615505648894886e-01  2.7090772927287748e-01  3.0699587930530059e-01  3.4418779062786958e-01  3.8228828227763112e-01  4.2113777365916188e-01  4.6060730360288410e-01  5.0059271801234240e-01  5.4100938529997955e-01  5.8178784137105921e-01  6.2287035748995234e-01  6.6420828698950807e-01  7.0576002483548250e-01  7.4748943336112461e-01  7.8936461658164292e-01  8.3135695271433740e-01  8.7344031654558307e-01  9.1559043993878975e-01  9.5778437088396129e-01  1.0000000000000000e+00  -2.0000000000000000e+00  -1.7524426212439315e+00  -1.5620524583820397e+00  -1.4090976823914769e+00  -1.2821774790641722e+00  -1.1741974520551517e+00  -1.0804866753760383e+00  -9.9783027892700660e-01  -9.2393492829753165e-01  -8.5711580252772757e-01  -7.9610433766470534e-01  -7.3992535019724726e-01  -6.8781580854074598e-01  -6.3916956043545914e-01  -5.9349877052326849e-01  -5.5040642705924780e-01  -5.0956636986825810e-01  -4.7070854818551233e-01  -4.3360799411065393e-01  -3.9807649126960287e-01  -3.6395624042625396e-01  -3.3111503986582325e-01  -2.9944264919551178e-01  -2.6884811944390269e-01  -2.3925797500553367e-01  -2.1061524830471043e-01  -1.8287950787952589e-01  -1.5602815528278854e-01  -1.3005934678519190e-01  -1.0499712590387057e-01  -8.0900811607667211e-02  -5.7885783406281047e-02  -3.6175333716559566e-02  -1.6887712208590321e-02  2.3009501014696531e-04  1.6716266502216245e-02  3.3445979886446701e-02  5.1043687478226227e-02  7.0298785856876683e-02  9.1294012665664184e-02  1.1408392384331301e-01  1.3878355259248892e-01  1.6543866208571303e-01  1.9401312123671069e-01  2.2440517035795290e-01  2.5645897417193769e-01  2.8998615535182237e-01  3.2479042895792326e-01  3.6068586391891866e-01  3.9750647637680347e-01  4.3510918052190928e-01  4.7337290340605731e-01  5.1219597968976927e-01  5.5149307028152639e-01  5.9119221518924558e-01  6.3123226014553568e-01  6.7156070844503624e-01  7.1213196664612555e-01  7.5290592402353385e-01  7.9384680181396972e-01  8.3492221440278247e-01  8.7610239354881814e-01  9.1735953546104909e-01  9.5866723788058017e-01  1.0000000000000000e+00  -2.0000000000000000e+00  -1.7261719961969868e+00  -1.5211506225952696e+00  -1.3595882823767638e+00  -1.2274712273434003e+00  -1.1163582372947938e+00  -1.0208286950622274e+00  -9.3722486945410066e-01  -8.6297924418824212e-01  -7.9623073930357791e-01  -7.3559398480000582e-01  -6.8001447076102184e-01  -6.2867424052340237e-01  -5.8092855984832625e-01  -5.3626224289279933e-01  -4.9425883745780008e-01  -4.5457845337482233e-01  -4.1694154493360469e-01  -3.8111689080200351e-01  -3.4691260131730767e-01  -3.1416936231902670e-01  -2.8275537725963429e-01  -2.5256264400366252e-01  -2.2350433395103914e-01  -1.9551316535119190e-01  -1.6854083713789977e-01  -1.4255889421106541e-01  -1.1756185995863709e-01  -9.3573994674501865e-02  -7.0662230245656377e-02  -4.8961766933073247e-02  -2.8784138856248323e-02  -1.0825665729194819e-02  5.2433071468605784e-03  2.0513244248373624e-02  3.6308948451143401e-02  5.3380283666206362e-02  7.1656071263580159e-02  9.1371672975327875e-02  1.1264694723684490e-01  1.3555682625402485e-01  1.6016470002957670e-01  1.8649339726881539e-01  2.1451437831362183e-01  2.4415149676558731e-01  2.7528951448902678e-01  3.0778748900455105e-01  3.4149381725565159e-01  3.7625875971307821e-01  4.1194257878875512e-01  4.4841956864561450e-01  4.8557914980966649e-01  5.2332522705915085e-01  5.6157470094711137e-01  6.0025568895886094e-01  6.3930575945790957e-01  6.7867031999897587e-01  7.1830120928044960e-01  7.5815549427291562e-01  7.9819445224792007e-01  8.3838270953400440e-01  8.7868750778585725e-01  9.1907807047600820e-01  9.5952504517731052e-01  1.0000000000000000e+00  -2.0000000000000000e+00  -1.7015694152912082e+00  -1.4835975596210529e+00  -1.3147779445604690e+00  -1.1784863476264271e+00  -1.0649974873965971e+00  -9.6820259964704181e-01  -8.8405017978207390e-01  -8.0973553034905987e-01  -7.4324878187872578e-01  -6.8310815500573718e-01  -6.2819505886599358e-01  -5.7764811515768610e-01  -5.3079278107517902e-01  -4.8709328778902933e-01  -4.4611902491114797e-01  -4.0752054757474621e-01  -3.7101216252633817e-01  -3.3635912530485051e-01  -3.0336815178193027e-01  -2.7188037986794600e-01  -2.4176620585174013e-01  -2.1292162035026629e-01  -1.8526581724625518e-01  -1.5873998637334813e-01  -1.3330743162751324e-01  -1.0895575519417110e-01  -8.5703253087244025e-02  -6.3614261205928113e-02  -4.2830733960364999e-02  -2.3739123667503838e-02  -6.7585925377456127e-03  8.5815300692145512e-03  2.3258310389077892e-02  3.8350064623721834e-02  5.4625999387777430e-02  7.2110135063655184e-02  9.0828640934560168e-02  1.1088488754400971e-01  1.3236527705236267e-01  1.5533173390636487e-01  1.7982502400297765e-01  2.0585584864634993e-01  2.3339949798337400e-01  2.6239692390174785e-01  2.9276009801403113e-01  3.2438046892170352e-01  3.5713859134705406e-01  3.9091277888898779e-01  4.2558551041952453e-01  4.6104736546212710e-01  4.9719890012784324e-01  5.3395107779005679e-01  5.7122481748890741e-01  6.0895008024117725e-01  6.4706476872826690e-01  6.8551360281250806e-01  7.2424705620378160e-01  7.6322039153975918e-01  8.0239280337079077e-01  8.4172666369945814e-01  8.8118685758459891e-01  9.2074019347981562e-01  9.6035487235265304e-01  1.0000000000000000e+00  -2.0000000000000000e+00  -1.6785449541346831e+00  -1.4490778431525455e+00  -1.2741073029877534e+00  -1.1344436315671260e+00  -1.0191513228976028e+00  -9.2149456271634711e-01  -8.3707307990842361e-01  -7.6287724356667086e-01  -6.9677146848424931e-01  -6.3719420978013952e-01  -5.8297494222917023e-01  -5.3321784563092467e-01  -4.8722529591445207e-01  -4.4444604939173360e-01  -4.0443927049648487e-01  -3.6684903409560238e-01  -3.3138594590190551e-01  -2.9781373056569838e-01  -2.6593938566812098e-01  -2.3560598334993299e-01  -2.0668753037273516e-01  -1.7908553743329414e-01  -1.5272713595036819e-01  -1.2756474040324750e-01  -1.0357750358756854e-01  -8.0775815380719429e-02  -5.9214218357277679e-02  -3.9025677969007209e-02  -2.0635277881331276e-02  -4.3363488389510426e-03  1.0457880108855597e-02  2.4713169343422305e-02  3.9356521046194831e-02  5.5002704469658367e-02  7.1734849412589327e-02  8.9605616266076757e-02  1.0866346986699560e-01  1.2897395921378815e-01  1.5059753952223109e-01  1.7357980831609437e-01  1.9794781342961912e-01  2.2370547533023269e-01  2.5083084107177644e-01  2.7927660284399886e-01  3.0897348474364655e-01  3.3983569732117785e-01  3.7176730032187322e-01  4.0466825407629453e-01  4.3843931853822826e-01  4.7298548265552592e-01  5.0821800744952261e-01  5.4405536648432595e-01  5.8042341097728389e-01  6.1725504578867407e-01  6.5448963240147262e-01  6.9207226631900787e-01  7.2995302118240979e-01  7.6808621231154861e-01  8.0642970599602548e-01  8.4494428430843838e-01  8.8359306537326487e-01  9.2234097350600208e-01  9.6115425075348682e-01  1.0000000000000000e+00  -2.0000000000000000e+00  -1.6570167090289027e+00  -1.4173210152635185e+00  -1.2371130262680503e+00  -1.0947130359743049e+00  -9.7805431641073082e-01  -8.7983240221933767e-01  -7.9533871190860483e-01  -7.2138648566413577e-01  -6.5573370512198148e-01  -5.9675262683567942e-01  -5.4323048928440221e-01  -4.9424407379446034e-01  -4.4907787075690414e-01  -4.0716905437101775e-01  -3.6806952835524048e-01  -3.3141918724425368e-01  -2.9692676260647943e-01  -2.6435594759326470e-01  -2.3351531249283095e-01  -2.0425105701387591e-01  -1.7644202288679703e-01  -1.4999670235599472e-01  -1.2485228884598844e-01  -1.0097614686042079e-01  -7.8370429831657457e-02  -5.7082022125019900e-02  -3.7229117768367126e-02  -1.9208875367416268e-02  -3.3217816363955571e-03  1.1076388562291938e-02  2.4990368521029302e-02  3.9284599416446804e-02  5.4451899982620747e-02  7.0569382796127469e-02  8.7705077526844713e-02  1.0591401072106692e-01  1.2524566305355744e-01  1.4574993992191621e-01  1.6747111350667920e-01  1.9044214640616230e-01  2.1468094606917204e-01  2.4018739817318471e-01  2.6694178812950037e-01  2.9490516165882458e-01  3.2402154079537843e-01  3.5422153529748784e-01  3.8542665854296637e-01  4.1755361855608886e-01  4.5051802700156807e-01  4.8423723917222594e-01  5.1863228053039545e-01  5.5362896972043996e-01  5.8915841414722869e-01  6.2515705953476197e-01  6.6156644876994197e-01  6.9833280887964200e-01  7.3540654989530163e-01  7.7274173052799933e-01  8.1029552399332416e-01  8.4802770216500456e-01  8.8590014609401957e-01  9.2387638441744091e-01  9.6192115715529247e-01  1.0000000000000000e+00  -2.0000000000000000e+00  -1.6369092076263019e+00  -1.3880929196436318e+00  -1.2034070135100492e+00  -1.0587784523686661e+00  -9.4108959069434706e-01  -8.4252189782261722e-01  -7.5809444882797095e-01  -6.8446721287686396e-01  -6.1930783841985992e-01  -5.6093346333388583e-01  -5.0809686429277157e-01  -4.5985298113658518e-01  -4.1547246182404107e-01  -3.7438389288435514e-01  -3.3613417849990523e-01  -3.0036078149145068e-01  -2.6677195702617168e-01  -2.3513254082358184e-01  -2.0525373737482441e-01  -1.7698593393355760e-01  -1.5021399829623361e-01  -1.2485494210946117e-01  -1.0085844287126616e-01  -7.8211820344636751e-02  -5.6952883833443504e-02  -3.7196392596152719e-02  -1.9269641113247096e-02  -3.5503348012668112e-03  1.0599663007871810e-02  2.4229215831328907e-02  3.8213985782704005e-02  5.2982959818714870e-02  6.8597096671713917e-02  8.5117849205386023e-02  1.0260206717759514e-01  1.2109968603778878e-01  1.4065523170425101e-01  1.6130902391364005e-01  1.8309482817640729e-01  2.0603671773270368e-01  2.3014642626772203e-01  2.5542138316383373e-01  2.8184375161421588e-01  3.0938071486642077e-01  3.3798598148155479e-01  3.6760224453042872e-01  3.9816417999641618e-01  4.2960153460352640e-01  4.6184193173972937e-01  4.9481316650141438e-01  5.2844490577939351e-01  5.6266981771980984e-01  5.9742421635642939e-01  6.3264832943320282e-01  6.6828629426389075e-01  7.0428597053431663e-01  7.4059863899115508e-01  7.7717863591182335e-01  8.1398295728426695e-01  8.5097085426423602e-01  8.8810343242036782e-01  9.2534326091444963e-01  9.6265399345024261e-01  1.0000000000000000e+00  -2.0000000000000000e+00  -1.6181524837337713e+00  -1.3611893219868061e+00  -1.1726611077376441e+00  -1.0262123304455975e+00  -9.0775358305393772e-01  -8.0900260015192216e-01  -7.2473790041578767e-01  -6.5148662374214605e-01  -5.8683954747524125e-01  -5.2906777078444467e-01  -4.7689587172324860e-01  -4.2936135983484752e-01  -3.8572420994432405e-01  -3.4540674487655110e-01  -3.0795261394968176e-01  -2.7299820002810848e-01  -2.4025238086821768e-01  -2.0948209975617876e-01  -1.8050214566956710e-01  -1.5316817025143090e-01  -1.2737245338884493e-01  -1.0304246651683266e-01  -8.0143337851149216e-02  -5.8688434469414200e-02  -3.8772596756892666e-02  -2.0686171477861909e-02  -4.9197761312610019e-03  9.1283212701728303e-03  2.2538813859553777e-02  3.6236625647449956e-02 