<?xml version="1.0"?>
<VTKFile type="UnstructuredGrid"  version="0.1"  >
<UnstructuredGrid>
<Piece  NumberOfPoints="441" NumberOfCells="800">
<Points>
<DataArray  type="Float64"  NumberOfComponents="3"  format="ascii">0 0 0  0.05 0 0  0.1 0 0  0.15 0 0  0.2 0 0  0.25 0 0  0.3 0 0  0.35 0 0  0.4 0 0  0.45 0 0  0.5 0 0  0.55 0 0  0.6 0 0  0.65 0 0  0.7 0 0  0.75 0 0  0.8 0 0  0.85 0 0  0.9 0 0  0.95 0 0  1 0 0  0 0.05 0  0.05 0.05 0  0.1 0.05 0  0.15 0.05 0  0.2 0.05 0  0.25 0.05 0  0.3 0.05 0  0.35 0.05 0  0.4 0.05 0  0.45 0.05 0  0.5 0.05 0  0.55 0.05 0  0.6 0.05 0  0.65 0.05 0  0.7 0.05 0  0.75 0.05 0  0.8 0.05 0  0.85 0.05 0  0.9 0.05 0  0.95 0.05 0  1 0.05 0  0 0.1 0  0.05 0.1 0  0.1 0.1 0  0.15 0.1 0  0.2 0.1 0  0.25 0.1 0  0.3 0.1 0  0.35 0.1 0  0.4 0.1 0  0.45 0.1 0  0.5 0.1 0  0.55 0.1 0  0.6 0.1 0  0.65 0.1 0  0.7 0.1 0  0.75 0.1 0  0.8 0.1 0  0.85 0.1 0  0.9 0.1 0  0.95 0.1 0  1 0.1 0  0 0.15 0  0.05 0.15 0  0.1 0.15 0  0.15 0.15 0  0.2 0.15 0  0.25 0.15 0  0.3 0.15 0  0.35 0.15 0  0.4 0.15 0  0.45 0.15 0  0.5 0.15 0  0.55 0.15 0  0.6 0.15 0  0.65 0.15 0  0.7 0.15 0  0.75 0.15 0  0.8 0.15 0  0.85 0.15 0  0.9 0.15 0  0.95 0.15 0  1 0.15 0  0 0.2 0  0.05 0.2 0  0.1 0.2 0  0.15 0.2 0  0.2 0.2 0  0.25 0.2 0  0.3 0.2 0  0.35 0.2 0  0.4 0.2 0  0.45 0.2 0  0.5 0.2 0  0.55 0.2 0  0.6 0.2 0  0.65 0.2 0  0.7 0.2 0  0.75 0.2 0  0.8 0.2 0  0.85 0.2 0  0.9 0.2 0  0.95 0.2 0  1 0.2 0  0 0.25 0  0.05 0.25 0  0.1 0.25 0  0.15 0.25 0  0.2 0.25 0  0.25 0.25 0  0.3 0.25 0  0.35 0.25 0  0.4 0.25 0  0.45 0.25 0  0.5 0.25 0  0.55 0.25 0  0.6 0.25 0  0.65 0.25 0  0.7 0.25 0  0.75 0.25 0  0.8 0.25 0  0.85 0.25 0  0.9 0.25 0  0.95 0.25 0  1 0.25 0  0 0.3 0  0.05 0.3 0  0.1 0.3 0  0.15 0.3 0  0.2 0.3 0  0.25 0.3 0  0.3 0.3 0  0.35 0.3 0  0.4 0.3 0  0.45 0.3 0  0.5 0.3 0  0.55 0.3 0  0.6 0.3 0  0.65 0.3 0  0.7 0.3 0  0.75 0.3 0  0.8 0.3 0  0.85 0.3 0  0.9 0.3 0  0.95 0.3 0  1 0.3 0  0 0.35 0  0.05 0.35 0  0.1 0.35 0  0.15 0.35 0  0.2 0.35 0  0.25 0.35 0  0.3 0.35 0  0.35 0.35 0  0.4 0.35 0  0.45 0.35 0  0.5 0.35 0  0.55 0.35 0  0.6 0.35 0  0.65 0.35 0  0.7 0.35 0  0.75 0.35 0  0.8 0.35 0  0.85 0.35 0  0.9 0.35 0  0.95 0.35 0  1 0.35 0  0 0.4 0  0.05 0.4 0  0.1 0.4 0  0.15 0.4 0  0.2 0.4 0  0.25 0.4 0  0.3 0.4 0  0.35 0.4 0  0.4 0.4 0  0.45 0.4 0  0.5 0.4 0  0.55 0.4 0  0.6 0.4 0  0.65 0.4 0  0.7 0.4 0  0.75 0.4 0  0.8 0.4 0  0.85 0.4 0  0.9 0.4 0  0.95 0.4 0  1 0.4 0  0 0.45 0  0.05 0.45 0  0.1 0.45 0  0.15 0.45 0  0.2 0.45 0  0.25 0.45 0  0.3 0.45 0  0.35 0.45 0  0.4 0.45 0  0.45 0.45 0  0.5 0.45 0  0.55 0.45 0  0.6 0.45 0  0.65 0.45 0  0.7 0.45 0  0.75 0.45 0  0.8 0.45 0  0.85 0.45 0  0.9 0.45 0  0.95 0.45 0  1 0.45 0  0 0.5 0  0.05 0.5 0  0.1 0.5 0  0.15 0.5 0  0.2 0.5 0  0.25 0.5 0  0.3 0.5 0  0.35 0.5 0  0.4 0.5 0  0.45 0.5 0  0.5 0.5 0  0.55 0.5 0  0.6 0.5 0  0.65 0.5 0  0.7 0.5 0  0.75 0.5 0  0.8 0.5 0  0.85 0.5 0  0.9 0.5 0  0.95 0.5 0  1 0.5 0  0 0.55 0  0.05 0.55 0  0.1 0.55 0  0.15 0.55 0  0.2 0.55 0  0.25 0.55 0  0.3 0.55 0  0.35 0.55 0  0.4 0.55 0  0.45 0.55 0  0.5 0.55 0  0.55 0.55 0  0.6 0.55 0  0.65 0.55 0  0.7 0.55 0  0.75 0.55 0  0.8 0.55 0  0.85 0.55 0  0.9 0.55 0  0.95 0.55 0  1 0.55 0  0 0.6 0  0.05 0.6 0  0.1 0.6 0  0.15 0.6 0  0.2 0.6 0  0.25 0.6 0  0.3 0.6 0  0.35 0.6 0  0.4 0.6 0  0.45 0.6 0  0.5 0.6 0  0.55 0.6 0  0.6 0.6 0  0.65 0.6 0  0.7 0.6 0  0.75 0.6 0  0.8 0.6 0  0.85 0.6 0  0.9 0.6 0  0.95 0.6 0  1 0.6 0  0 0.65 0  0.05 0.65 0  0.1 0.65 0  0.15 0.65 0  0.2 0.65 0  0.25 0.65 0  0.3 0.65 0  0.35 0.65 0  0.4 0.65 0  0.45 0.65 0  0.5 0.65 0  0.55 0.65 0  0.6 0.65 0  0.65 0.65 0  0.7 0.65 0  0.75 0.65 0  0.8 0.65 0  0.85 0.65 0  0.9 0.65 0  0.95 0.65 0  1 0.65 0  0 0.7 0  0.05 0.7 0  0.1 0.7 0  0.15 0.7 0  0.2 0.7 0  0.25 0.7 0  0.3 0.7 0  0.35 0.7 0  0.4 0.7 0  0.45 0.7 0  0.5 0.7 0  0.55 0.7 0  0.6 0.7 0  0.65 0.7 0  0.7 0.7 0  0.75 0.7 0  0.8 0.7 0  0.85 0.7 0  0.9 0.7 0  0.95 0.7 0  1 0.7 0  0 0.75 0  0.05 0.75 0  0.1 0.75 0  0.15 0.75 0  0.2 0.75 0  0.25 0.75 0  0.3 0.75 0  0.35 0.75 0  0.4 0.75 0  0.45 0.75 0  0.5 0.75 0  0.55 0.75 0  0.6 0.75 0  0.65 0.75 0  0.7 0.75 0  0.75 0.75 0  0.8 0.75 0  0.85 0.75 0  0.9 0.75 0  0.95 0.75 0  1 0.75 0  0 0.8 0  0.05 0.8 0  0.1 0.8 0  0.15 0.8 0  0.2 0.8 0  0.25 0.8 0  0.3 0.8 0  0.35 0.8 0  0.4 0.8 0  0.45 0.8 0  0.5 0.8 0  0.55 0.8 0  0.6 0.8 0  0.65 0.8 0  0.7 0.8 0  0.75 0.8 0  0.8 0.8 0  0.85 0.8 0  0.9 0.8 0  0.95 0.8 0  1 0.8 0  0 0.85 0  0.05 0.85 0  0.1 0.85 0  0.15 0.85 0  0.2 0.85 0  0.25 0.85 0  0.3 0.85 0  0.35 0.85 0  0.4 0.85 0  0.45 0.85 0  0.5 0.85 0  0.55 0.85 0  0.6 0.85 0  0.65 0.85 0  0.7 0.85 0  0.75 0.85 0  0.8 0.85 0  0.85 0.85 0  0.9 0.85 0  0.95 0.85 0  1 0.85 0  0 0.9 0  0.05 0.9 0  0.1 0.9 0  0.15 0.9 0  0.2 0.9 0  0.25 0.9 0  0.3 0.9 0  0.35 0.9 0  0.4 0.9 0  0.45 0.9 0  0.5 0.9 0  0.55 0.9 0  0.6 0.9 0  0.65 0.9 0  0.7 0.9 0  0.75 0.9 0  0.8 0.9 0  0.85 0.9 0  0.9 0.9 0  0.95 0.9 0  1 0.9 0  0 0.95 0  0.05 0.95 0  0.1 0.95 0  0.15 0.95 0  0.2 0.95 0  0.25 0.95 0  0.3 0.95 0  0.35 0.95 0  0.4 0.95 0  0.45 0.95 0  0.5 0.95 0  0.55 0.95 0  0.6 0.95 0  0.65 0.95 0  0.7 0.95 0  0.75 0.95 0  0.8 0.95 0  0.85 0.95 0  0.9 0.95 0  0.95 0.95 0  1 0.95 0  0 1 0  0.05 1 0  0.1 1 0  0.15 1 0  0.2 1 0  0.25 1 0  0.3 1 0  0.35 1 0  0.4 1 0  0.45 1 0  0.5 1 0  0.55 1 0  0.6 1 0  0.65 1 0  0.7 1 0  0.75 1 0  0.8 1 0  0.85 1 0  0.9 1 0  0.95 1 0  1 1 0  </DataArray>
</Points>
<Cells>
[...]
<PointData  Scalars="f_6"> 
<DataArray  type="Float64"  Name="f_6"  format="ascii">-2.0000000000000000e+00  -1.8499999999999999e+00  -1.7000000000000000e+00  -1.5500000000000000e+00  -1.4000000000000001e+00  -1.2500000000000000e+00  -1.0999999999999999e+00  -9.5000000000000007e-01  -7.9999999999999993e-01  -6.5000000000000013e-01  -5.0000000000000000e-01  -3.4999999999999987e-01  -2.0000000000000007e-01  -4.9999999999999933e-02  9.9999999999999867e-02  2.5000000000000000e-01  4.0000000000000013e-01  5.4999999999999993e-01  7.0000000000000007e-01  8.4999999999999987e-01  1.0000000000000000e+00  -2.0000000000000000e+00  -1.4993205713311701e+00  -1.2160722976678704e+00  -1.0136213624125194e+00  -8.5156498215429888e-01  -7.0953475019618872e-01  -5.7735276034608340e-01  -4.5039706209685409e-01  -3.2713544136979700e-01  -2.0830866352801469e-01  -9.4373196769833925e-02  1.3201000622688032e-02  1.1054042574536863e-01  1.8986733935966790e-01  2.7473729302671374e-01  3.7544250944486529e-01  4.9111474577943381e-01  6.1410885103219626e-01  7.4102432710602872e-01  8.7004556560639013e-01  1.0000000000000000e+00  -2.0000000000000000e+00  -1.2522703897353462e+00  -8.7482597867138401e-01  -6.2884173835956425e-01  -4.5287110823024918e-01  -3.1494341515238256e-01  -1.9700767911908393e-01  -9.0338302588735264e-02  8.3745195618980875e-03  9.8971464281456811e-02  1.7947920928615763e-01  2.5034786025573680e-01  3.1202668593251953e-01  3.5923171977170731e-01  4.1399837284294383e-01  4.8591799897331400e-01  5.7490762264067308e-01  6.7429633124332300e-01  7.7994289178552845e-01  8.8915793531953236e-01  1.0000000000000000e+00  -2.0000000000000000e+00  -1.0624339596059360e+00  -6.0833297897637151e-01  -3.3258639844321669e-01  -1.5069246052595148e-01  -1.9743308193335734e-02  8.3624335527632918e-02  1.7101891140290501e-01  2.4737581610538803e-01  3.1402474028739685e-01  3.7091146535507841e-01  4.1875150438888659e-01  4.5858245630817424e-01  4.8876988317801712e-01  5.2633491803851529e-01  5.7932349096477365e-01  6.4830141456662149e-01  7.2822595951489488e-01  8.1529297347322971e-01  9.0664328388621140e-01  1.0000000000000000e+00  -2.0000000000000000e+00  -9.1381678015914891e-01  -4.0145467665436063e-01  -1.0452816012024722e-01  7.8631009525178194e-02  2.0109070135118531e-01  2.9071419946865867e-01  3.6148912675847411e-01  4.1991019887494396e-01  4.6870836268404503e-01  5.0913736981939051e-01  5.4231570089079395e-01  5.6921628889622722e-01  5.8968846328150548e-01  6.1666321990364004e-01  6.5673963228064358e-01  7.1074858514614481e-01  7.7501311877640566e-01  8.4635975870628410e-01  9.2212222675208366e-01  1.0000000000000000e+00  -2.0000000000000000e+00  -7.9757904781241318e-01  -2.4136199637518568e-01  7.0210328967480501e-02  2.5254051841883285e-01  3.6668813312212600e-01  4.4444012803614630e-01  5.0185245769703068e-01  5.4672549287938754e-01  5.8277690750543565e-01  6.1194746874235739e-01  6.3554325928912847e-01  6.5450689238870263e-01  6.6911724435527964e-01  6.8923361954835860e-01  7.2022323310801628e-01  7.6294017496090849e-01  8.1471817173829930e-01  8.7301071582341749e-01  9.3548586441583959e-01  1.0000000000000000e+00  -2.0000000000000000e+00  -7.0699864638584975e-01  -1.1771930707447428e-01  2.0398455311261796e-01  3.8461624694478830e-01  4.9147609019772115e-01  5.5958531850979654e-01  6.0670698911316034e-01  6.4163271568737412e-01  6.6869860977544282e-01  6.9017211066672912e-01  7.0740839023222069e-01  7.2128505000549792e-01  7.3213470999723196e-01  7.4758520566841846e-01  7.7197950564215478e-01  8.0607070985117357e-01  8.4790867739246567e-01  8.9547906843324687e-01  9.4681051508785763e-01  1.0000000000000000e+00  -2.0000000000000000e+00  -6.3655258556368055e-01  -2.2257354340017129e-02  3.0655254828955425e-01  4.8529035796752629e-01  5.8615159767766589e-01  6.4672829917913244e-01  6.8612137084061497e-01  7.1383417094059864e-01  7.3457109517525865e-01  7.5073772789878157e-01  7.6366448819566612e-01  7.7413679510530942e-01  7.8243727501280647e-01  7.9456878533826925e-01  8.1403887394101104e-01  8.4145448140916601e-01  8.7536675954714172e-01  9.1418636542924714e-01  9.5627712750234406e-01  1.0000000000000000e+00  -2.0000000000000000e+00  -5.8175730220008404e-01  5.1554137382906942e-02  3.8544458335647419e-01  5.6242890102467968e-01  6.5853999370149507e-01  7.1337068659486491e-01  7.4703596934199834e-01  7.6953563780373135e-01  7.8578747362505963e-01  7.9824136269394508e-01  8.0817265812519379e-01  8.1627369943262429e-01  8.2276572610707066e-01  8.3244716433193200e-01  8.4815272337445491e-01  8.7034158229733782e-01  8.9791751395768848e-01  9.2962250623425602e-01  9.6411162949227125e-01  1.0000000000000000e+00  -2.0000000000000000e+00  -5.3905405539708473e-01  1.0878769887115265e-01  4.4638300516345814e-01  6.2188405804893387e-01  7.1432238348485189e-01  7.6482840089632576e-01  7.9427146827353801e-01  8.1299323764086828e-01  8.2603304735470195e-01  8.3584195254069649e-01  8.4363519527001429e-01  8.5002616996511771e-01  8.5518856057713422e-01  8.6300880891829845e-01  8.7578327292753855e-01  8.9384161044804145e-01  9.1633920775201849e-01  9.4227451605781698e-01  9.7054688423248514e-01  1.0000000000000000e+00  -2.0000000000000000e+00  -5.0567187891183385e-01  1.5332603908942841e-01  4.9366805142325992e-01  6.6797492402759262e-01  7.5761330244165292e-01  8.0488556694825464e-01  8.3121667397792764e-01  8.4718302454135663e-01  8.5789263694110751e-01  8.6578096545255168e-01  8.7200998167881261e-01  8.7713230609391235e-01  8.8129071387076230e-01  8.8766765218994126e-01  8.9812994896935938e-01  9.1290237881527125e-01  9.3132319054452728e-01  9.5258946601250838e-01  9.7580139137985267e-01  1.0000000000000000e+00  -2.0000000000000000e+00  -4.7948446144365187e-01  1.8810668272478773e-01  5.3050571684770575e-01  7.0387647168545864e-01  7.9139704653079057e-01  8.3625694941420614e-01  8.6028794446818313e-01  8.7422818864331764e-01  8.8322471962241100e-01  8.8969353482169689e-01  8.9475406981010430e-01  8.9891480515508204e-01  9.0230089451812556e-01  9.0754326871120850e-01  9.1616649194468747e-01  9.2831476529915724e-01  9.4346170959831033e-01  9.6095876606783726e-01  9.8006921527441637e-01  1.0000000000000000e+00  -2.0000000000000000e+00  -4.5887868275119659e-01  2.1533056792831118e-01  5.5927178500520724e-01  7.3191903350666276e-01  8.1784632558360748e-01  8.6090855424937196e-01  8.8323377946551196e-01  8.9567256886881541e-01  9.0339491123457505e-01  9.0879924322983074e-01  9.1297317020699176e-01  9.1639431779902258e-01  9.1917938647002984e-01  9.2352319655011550e-01  9.3067798479902486e-01  9.4072848083836003e-01  9.5325011648171953e-01  9.6771467338611539e-01  9.8351670364997690e-01  1.0000000000000000e+00  -2.0000000000000000e+00  -4.4264502484818552e-01  2.3662862595523729e-01  5.8171524633942862e-01  7.5381118172055928e-01  8.3855000369314581e-01  8.8027764374316153e-01  9.0133667472040424e-01  9.1265721062870098e-01  9.1942417702124390e-01  9.2402255831604285e-01  9.2751731614222921e-01  9.3036513554752787e-01  9.3268007046449297e-01  9.3631087255577505e-01  9.4229376986293634e-01  9.5067105677353880e-01  9.6109560210409239e-01  9.7313310734492819e-01  9.8628292593937616e-01  1.0000000000000000e+00  -2.0000000000000000e+00  -4.2989512786614220e-01  2.5318585173174907e-01  5.9910910664618422e-01  7.7080193636752237e-01  8.5467397510103149e-01  8.9542326488282609e-01  9.1554751102493848e-01  9.2603571156705666e-01  9.3208483183343516e-01  9.3607117571485399e-01  9.3904444445622093e-01  9.4144751858548703e-01  9.4339520294624757e-01  9.4646242413557302e-01  9.5151516532340685e-01  9.5856637428876701e-01  9.6732812781618394e-01  9.7743922795012950e-01  9.8848189276259979e-01  1.0000000000000000e+00  -2.0000000000000000e+00  -4.2001058517736323e-01  2.6582566311542344e-01  6.1235936136313118e-01  7.8379823508880386e-01  8.6707488776146668e-01  9.0712967372851505e-01  9.2657580330689104e-01  9.3645064980032833e-01  9.4196401704953703e-01  9.4548839272605323e-01  9.4806397983442692e-01  9.5012485488242404e-01  9.5178829932746500e-01  9.5441490409585061e-01  9.5873809300635071e-01  9.6475114724193956e-01  9.7221130692174751e-01  9.8081378387680607e-01  9.9020541716089394e-01  1.0000000000000000e+00  -2.0000000000000000e+00  -4.1262654894293715e-01  2.7506316565870065e-01  6.2208720823884101e-01  7.9345344787058270e-01  8.7638238250730627e-01  9.1597834583026538e-01  9.3495100279207699e-01  9.4438491115073986e-01  9.4950637792794579e-01  9.5268880208919504e-01  9.5496730107424088e-01  9.5677048394831088e-01  9.5821854280594498e-01  9.6050792698190590e-01  9.6427115536420549e-01  9.6948881475089310e-01  9.7595216875206059e-01  9.8339918347445321e-01  9.9152599200416958e-01  1.0000000000000000e+00  -2.0000000000000000e+00  -4.0762963251241241e-01  2.8116018771226625e-01  6.2871060503117726e-01  8.0024359428922143e-01  8.8306194513069980e-01  9.2239916044382619e-01  9.4106456264995086e-01  9.5019644825215610e-01  9.5504294478383533e-01  9.5798266383201591e-01  9.6004897950069934e-01  9.6166704312578999e-01  9.6295899945585284e-01  9.6500017838107766e-01  9.6834978671767269e-01  9.7298078764536811e-01  9.7870936986114865e-01  9.8530478926477727e-01  9.9249936738133149e-01  1.0000000000000000e+00  -2.0000000000000000e+00  -4.0494622054537083e-01  2.8429946193614863e-01  6.3257104657076035e-01  8.0454668043042576e-01  8.8746565775535080e-01  9.2670689978577248e-01  9.4519869515193167e-01  9.5414179217192630e-01  9.5881052433990555e-01  9.6159202727721205e-01  9.6352070253823241e-01  9.6501970560670769e-01  9.6621038259306335e-01  9.6808192719349295e-01  9.7114702548003951e-01  9.7537517925175865e-01  9.8059973378238896e-01  9.8661123634217629e-01  9.9316668825637955e-01  1.0000000000000000e+00  -2.0000000000000000e+00  -4.0259166835524368e-01  2.8517168637375379e-01  6.3414479315559014e-01  8.0672223106826202e-01  8.8986829626473374e-01  9.2912451095193871e-01  9.4754507783042285e-01  9.5639188675768172e-01  9.6096474794284414e-01  9.6366068053734488e-01  9.6551815690439169e-01  9.6696225345980280e-01  9.6811260361406315e-01  9.6988436954528057e-01  9.7278120875723395e-01  9.7677317009923859e-01  9.8170314967447281e-01  9.8737373406515982e-01  9.9355614930200997e-01  1.0000000000000000e+00  -2.0000000000000000e+00  -3.8385137959915117e-01  2.8583510429545606e-01  6.3415666047077901e-01  8.0712356150376585e-01  8.9047013215191850e-01  9.2979047505080503e-01  9.4821518027959195e-01  9.5704313433612132e-01  9.6159032445706327e-01  9.6426138277507345e-01  9.6610078953574963e-01  9.6754597592718350e-01  9.6876085585873206e-01  9.7048551938955152e-01  9.7332026990437726e-01  9.7723314271348960e-01  9.8206596075110386e-01  9.8762440094198101e-01  9.9368417488650052e-01  1.0000000000000000e+00  </DataArray> 
</PointData> 
</Piece>
</UnstructuredGrid>
</VTKFile>