<?xml version="1.0"?>
<VTKFile type="UnstructuredGrid"  version="0.1"  >
<UnstructuredGrid>
<Piece  NumberOfPoints="441" NumberOfCells="800">
<Points>
<DataArray  type="Float64"  NumberOfComponents="3"  format="ascii">0 0 0  0.05 0 0  0.1 0 0  0.15 0 0  0.2 0 0  0.25 0 0  0.3 0 0  0.35 0 0  0.4 0 0  0.45 0 0  0.5 0 0  0.55 0 0  0.6 0 0  0.65 0 0  0.7 0 0  0.75 0 0  0.8 0 0  0.85 0 0  0.9 0 0  0.95 0 0  1 0 0  0 0.05 0  0.05 0.05 0  0.1 0.05 0  0.15 0.05 0  0.2 0.05 0  0.25 0.05 0  0.3 0.05 0  0.35 0.05 0  0.4 0.05 0  0.45 0.05 0  0.5 0.05 0  0.55 0.05 0  0.6 0.05 0  0.65 0.05 0  0.7 0.05 0  0.75 0.05 0  0.8 0.05 0  0.85 0.05 0  0.9 0.05 0  0.95 0.05 0  1 0.05 0  0 0.1 0  0.05 0.1 0  0.1 0.1 0  0.15 0.1 0  0.2 0.1 0  0.25 0.1 0  0.3 0.1 0  0.35 0.1 0  0.4 0.1 0  0.45 0.1 0  0.5 0.1 0  0.55 0.1 0  0.6 0.1 0  0.65 0.1 0  0.7 0.1 0  0.75 0.1 0  0.8 0.1 0  0.85 0.1 0  0.9 0.1 0  0.95 0.1 0  1 0.1 0  0 0.15 0  0.05 0.15 0  0.1 0.15 0  0.15 0.15 0  0.2 0.15 0  0.25 0.15 0  0.3 0.15 0  0.35 0.15 0  0.4 0.15 0  0.45 0.15 0  0.5 0.15 0  0.55 0.15 0  0.6 0.15 0  0.65 0.15 0  0.7 0.15 0  0.75 0.15 0  0.8 0.15 0  0.85 0.15 0  0.9 0.15 0  0.95 0.15 0  1 0.15 0  0 0.2 0  0.05 0.2 0  0.1 0.2 0  0.15 0.2 0  0.2 0.2 0  0.25 0.2 0  0.3 0.2 0  0.35 0.2 0  0.4 0.2 0  0.45 0.2 0  0.5 0.2 0  0.55 0.2 0  0.6 0.2 0  0.65 0.2 0  0.7 0.2 0  0.75 0.2 0  0.8 0.2 0  0.85 0.2 0  0.9 0.2 0  0.95 0.2 0  1 0.2 0  0 0.25 0  0.05 0.25 0  0.1 0.25 0  0.15 0.25 0  0.2 0.25 0  0.25 0.25 0  0.3 0.25 0  0.35 0.25 0  0.4 0.25 0  0.45 0.25 0  0.5 0.25 0  0.55 0.25 0  0.6 0.25 0  0.65 0.25 0  0.7 0.25 0  0.75 0.25 0  0.8 0.25 0  0.85 0.25 0  0.9 0.25 0  0.95 0.25 0  1 0.25 0  0 0.3 0  0.05 0.3 0  0.1 0.3 0  0.15 0.3 0  0.2 0.3 0  0.25 0.3 0  0.3 0.3 0  0.35 0.3 0  0.4 0.3 0  0.45 0.3 0  0.5 0.3 0  0.55 0.3 0  0.6 0.3 0  0.65 0.3 0  0.7 0.3 0  0.75 0.3 0  0.8 0.3 0  0.85 0.3 0  0.9 0.3 0  0.95 0.3 0  1 0.3 0  0 0.35 0  0.05 0.35 0  0.1 0.35 0  0.15 0.35 0  0.2 0.35 0  0.25 0.35 0  0.3 0.35 0  0.35 0.35 0  0.4 0.35 0  0.45 0.35 0  0.5 0.35 0  0.55 0.35 0  0.6 0.35 0  0.65 0.35 0  0.7 0.35 0  0.75 0.35 0  0.8 0.35 0  0.85 0.35 0  0.9 0.35 0  0.95 0.35 0  1 0.35 0  0 0.4 0  0.05 0.4 0  0.1 0.4 0  0.15 0.4 0  0.2 0.4 0  0.25 0.4 0  0.3 0.4 0  0.35 0.4 0  0.4 0.4 0  0.45 0.4 0  0.5 0.4 0  0.55 0.4 0  0.6 0.4 0  0.65 0.4 0  0.7 0.4 0  0.75 0.4 0  0.8 0.4 0  0.85 0.4 0  0.9 0.4 0  0.95 0.4 0  1 0.4 0  0 0.45 0  0.05 0.45 0  0.1 0.45 0  0.15 0.45 0  0.2 0.45 0  0.25 0.45 0  0.3 0.45 0  0.35 0.45 0  0.4 0.45 0  0.45 0.45 0  0.5 0.45 0  0.55 0.45 0  0.6 0.45 0  0.65 0.45 0  0.7 0.45 0  0.75 0.45 0  0.8 0.45 0  0.85 0.45 0  0.9 0.45 0  0.95 0.45 0  1 0.45 0  0 0.5 0  0.05 0.5 0  0.1 0.5 0  0.15 0.5 0  0.2 0.5 0  0.25 0.5 0  0.3 0.5 0  0.35 0.5 0  0.4 0.5 0  0.45 0.5 0  0.5 0.5 0  0.55 0.5 0  0.6 0.5 0  0.65 0.5 0  0.7 0.5 0  0.75 0.5 0  0.8 0.5 0  0.85 0.5 0  0.9 0.5 0  0.95 0.5 0  1 0.5 0  0 0.55 0  0.05 0.55 0  0.1 0.55 0  0.15 0.55 0  0.2 0.55 0  0.25 0.55 0  0.3 0.55 0  0.35 0.55 0  0.4 0.55 0  0.45 0.55 0  0.5 0.55 0  0.55 0.55 0  0.6 0.55 0  0.65 0.55 0  0.7 0.55 0  0.75 0.55 0  0.8 0.55 0  0.85 0.55 0  0.9 0.55 0  0.95 0.55 0  1 0.55 0  0 0.6 0  0.05 0.6 0  0.1 0.6 0  0.15 0.6 0  0.2 0.6 0  0.25 0.6 0  0.3 0.6 0  0.35 0.6 0  0.4 0.6 0  0.45 0.6 0  0.5 0.6 0  0.55 0.6 0  0.6 0.6 0  0.65 0.6 0  0.7 0.6 0  0.75 0.6 0  0.8 0.6 0  0.85 0.6 0  0.9 0.6 0  0.95 0.6 0  1 0.6 0  0 0.65 0  0.05 0.65 0  0.1 0.65 0  0.15 0.65 0  0.2 0.65 0  0.25 0.65 0  0.3 0.65 0  0.35 0.65 0  0.4 0.65 0  0.45 0.65 0  0.5 0.65 0  0.55 0.65 0  0.6 0.65 0  0.65 0.65 0  0.7 0.65 0  0.75 0.65 0  0.8 0.65 0  0.85 0.65 0  0.9 0.65 0  0.95 0.65 0  1 0.65 0  0 0.7 0  0.05 0.7 0  0.1 0.7 0  0.15 0.7 0  0.2 0.7 0  0.25 0.7 0  0.3 0.7 0  0.35 0.7 0  0.4 0.7 0  0.45 0.7 0  0.5 0.7 0  0.55 0.7 0  0.6 0.7 0  0.65 0.7 0  0.7 0.7 0  0.75 0.7 0  0.8 0.7 0  0.85 0.7 0  0.9 0.7 0  0.95 0.7 0  1 0.7 0  0 0.75 0  0.05 0.75 0  0.1 0.75 0  0.15 0.75 0  0.2 0.75 0  0.25 0.75 0  0.3 0.75 0  0.35 0.75 0  0.4 0.75 0  0.45 0.75 0  0.5 0.75 0  0.55 0.75 0  0.6 0.75 0  0.65 0.75 0  0.7 0.75 0  0.75 0.75 0  0.8 0.75 0  0.85 0.75 0  0.9 0.75 0  0.95 0.75 0  1 0.75 0  0 0.8 0  0.05 0.8 0  0.1 0.8 0  0.15 0.8 0  0.2 0.8 0  0.25 0.8 0  0.3 0.8 0  0.35 0.8 0  0.4 0.8 0  0.45 0.8 0  0.5 0.8 0  0.55 0.8 0  0.6 0.8 0  0.65 0.8 0  0.7 0.8 0  0.75 0.8 0  0.8 0.8 0  0.85 0.8 0  0.9 0.8 0  0.95 0.8 0  1 0.8 0  0 0.85 0  0.05 0.85 0  0.1 0.85 0  0.15 0.85 0  0.2 0.85 0  0.25 0.85 0  0.3 0.85 0  0.35 0.85 0  0.4 0.85 0  0.45 0.85 0  0.5 0.85 0  0.55 0.85 0  0.6 0.85 0  0.65 0.85 0  0.7 0.85 0  0.75 0.85 0  0.8 0.85 0  0.85 0.85 0  0.9 0.85 0  0.95 0.85 0  1 0.85 0  0 0.9 0  0.05 0.9 0  0.1 0.9 0  0.15 0.9 0  0.2 0.9 0  0.25 0.9 0  0.3 0.9 0  0.35 0.9 0  0.4 0.9 0  0.45 0.9 0  0.5 0.9 0  0.55 0.9 0  0.6 0.9 0  0.65 0.9 0  0.7 0.9 0  0.75 0.9 0  0.8 0.9 0  0.85 0.9 0  0.9 0.9 0  0.95 0.9 0  1 0.9 0  0 0.95 0  0.05 0.95 0  0.1 0.95 0  0.15 0.95 0  0.2 0.95 0  0.25 0.95 0  0.3 0.95 0  0.35 0.95 0  0.4 0.95 0  0.45 0.95 0  0.5 0.95 0  0.55 0.95 0  0.6 0.95 0  0.65 0.95 0  0.7 0.95 0  0.75 0.95 0  0.8 0.95 0  0.85 0.95 0  0.9 0.95 0  0.95 0.95 0  1 0.95 0  0 1 0  0.05 1 0  0.1 1 0  0.15 1 0  0.2 1 0  0.25 1 0  0.3 1 0  0.35 1 0  0.4 1 0  0.45 1 0  0.5 1 0  0.55 1 0  0.6 1 0  0.65 1 0  0.7 1 0  0.75 1 0  0.8 1 0  0.85 1 0  0.9 1 0  0.95 1 0  1 1 0  </DataArray>
</Points>
<Cells>
[...]
<PointData  Scalars="f_6"> 
<DataArray  type="Float64"  Name="f_6"  format="ascii">-2.0000000000000000e+00  -1.8499999999999999e+00  -1.7000000000000000e+00  -1.5500000000000000e+00  -1.4000000000000001e+00  -1.2500000000000000e+00  -1.0999999999999999e+00  -9.5000000000000007e-01  -7.9999999999999993e-01  -6.5000000000000013e-01  -5.0000000000000000e-01  -3.4999999999999987e-01  -2.0000000000000007e-01  -4.9999999999999940e-02  9.9999999999999867e-02  2.5000000000000000e-01  4.0000000000000013e-01  5.4999999999999993e-01  7.0000000000000007e-01  8.4999999999999987e-01  1.0000000000000000e+00  -2.0000000000000000e+00  -1.5471043658192614e+00  -1.2680277346398821e+00  -1.0668604684954104e+00  -9.0188156700404820e-01  -7.5429144973434736e-01  -6.1566513294857084e-01  -4.8244007791387289e-01  -3.5341125430666065e-01  -2.2862737074260911e-01  -1.0900835938095318e-01  3.5556507706938265e-03  1.0552921811933792e-01  1.8954545321108968e-01  2.7660278390543397e-01  3.7712154352155097e-01  4.9239037436893068e-01  6.1500425042811513e-01  7.4159029991806169e-01  8.7031936087044093e-01  1.0000000000000000e+00  -2.0000000000000000e+00  -1.3113045692995384e+00  -9.2406179614841000e-01  -6.8042669197827699e-01  -5.0554470428291698e-01  -3.6425184299210328e-01  -2.4041061649470638e-01  -1.2702355487340575e-01  -2.1513611852712878e-02  7.6485431362829731e-02  1.6610873934112599e-01  2.4564284194485378e-01  3.1265121133742851e-01  3.6391173678430871e-01  4.1918034023427136e-01  4.8949301581183924e-01  5.7743570352605633e-01  6.7603632742546826e-01  7.8103758837369008e-01  8.8968714356370249e-01  1.0000000000000000e+00  -2.0000000000000000e+00  -1.1264053400486818e+00  -6.5272679084183249e-01  -3.7590596160981360e-01  -1.9537855147748753e-01  -6.2459538161411803e-02  4.5734021044215457e-02  1.3944722073647631e-01  2.2282555767102924e-01  2.9711215425143578e-01  3.6220159907627208e-01  4.1743190898060539e-01  4.6207422376953627e-01  4.9557835584675425e-01  5.3317228037866882e-01  5.8423447596547862e-01  6.5182309649798709e-01  7.3066776737401218e-01  8.1683658258752823e-01  9.0739162501067927e-01  1.0000000000000000e+00  -2.0000000000000000e+00  -9.8193613507236066e-01  -4.4069022851824424e-01  -1.3878208254821103e-01  4.4371930868206885e-02  1.6841015159870443e-01  2.6194718867134226e-01  3.3817779155170591e-01  4.0283781607898667e-01  4.5819140094949690e-01  5.0501057496215151e-01  5.4357547723169053e-01  5.7419804056358115e-01  5.9733382303055549e-01  6.2424269178067027e-01  6.6244951117341933e-01  7.1495443912640189e-01  7.7797506298506580e-01  8.4824934959173126e-01  9.2304277389148581e-01  1.0000000000000000e+00  -2.0000000000000000e+00  -8.6975941813558177e-01  -2.7633941947383228e-01  4.4236917210948599e-02  2.2818048573851263e-01  3.4390882446529542e-01  4.2479280885194898e-01  4.8658054451507293e-01  5.3644172372209120e-01  5.7755371709003911e-01  6.1137845062562335e-01  6.3876836106613244e-01  6.6046548883421807e-01  6.7714201747192915e-01  6.9712460567096790e-01  7.2636643782112720e-01  7.6757008584913533e-01  8.1802869584811810e-01  8.7514297890284509e-01  9.3653012096353361e-01  1.0000000000000000e+00  -2.0000000000000000e+00  -7.8315694567177341e-01  -1.4972640046662780e-01  1.8468756027097227e-01  3.6848089872303214e-01  4.7704338536817908e-01  5.4760801699102979e-01  5.9803680780297941e-01  6.3668317735087943e-01  6.6742964941183258e-01  6.9218428399194043e-01  7.1206626629015946e-01  7.2791163370259537e-01  7.4033165917480392e-01  7.5556524428969807e-01  7.7832154859098646e-01  8.1093077060089458e-01  8.5142665565542597e-01  8.9776374920799795e-01  9.4793473105980353e-01  1.0000000000000000e+00  -2.0000000000000000e+00  -7.1657201124589232e-01  -5.2555607529889505e-02  2.9216009011984367e-01  4.7544243675080822e-01  5.7816863048215650e-01  6.4064788439618370e-01  6.8243053476845628e-01  7.1279036900071302e-01  7.3610899915479755e-01  7.5454753730517399e-01  7.6931030105101628e-01  7.8118703906758913e-01  7.9066589240456553e-01  8.0249793566798766e-01  8.2042374165222565e-01  8.4640479230803134e-01  8.7898340696469246e-01  9.1655063121391800e-01  9.5744505406768288e-01  1.0000000000000000e+00  -2.0000000000000000e+00  -6.6548923695650086e-01  2.1899681453739151e-02  3.7435800223324239e-01  5.5708907365506777e-01  6.5525327406556244e-01  7.1157157994858267e-01  7.4690796446797647e-01  7.7122560554697683e-01  7.8924256718466945e-01  8.0324903538615300e-01  8.1444735993783091e-01  8.2354174336985997e-01  8.3090852328342690e-01  8.4022272704186118e-01  8.5447069004189735e-01  8.7528125001431223e-01  9.0155154868139520e-01  9.3201031461529937e-01  9.6529485399700921e-01  1.0000000000000000e+00  -2.0000000000000000e+00  -6.2631727129712911e-01  7.8960356727335271e-02  4.3730733149363349e-01  6.1959182790027711e-01  7.1429457779851224e-01  7.6600501822842937e-01  7.9659187172083457e-01  8.1652458068035005e-01  8.3074354580649501e-01  8.4159847568679635e-01  8.5025758257359418e-01  8.5734262959933238e-01  8.6314665055072237e-01  8.7055206656098427e-01  8.8195504145918990e-01  8.9869796902592525e-01  9.1993122313127673e-01  9.4464422456887531e-01  9.7172404730505424e-01  1.0000000000000000e+00  -2.0000000000000000e+00  -5.9625518310993020e-01  1.2275094508412070e-01  4.8562974641300499e-01  6.6761419564561231e-01  7.5974576138453243e-01  8.0804967510531689e-01  8.3515570564954600e-01  8.5190259245631850e-01  8.6337816643836829e-01  8.7195681793183477e-01  8.7876720708876532e-01  8.8436512637236797e-01  8.8898693297765941e-01  8.9492102910002969e-01  9.0409944020795296e-01  9.1762436149892279e-01  9.3483115024891184e-01  9.5491131322387113e-01  9.7695711065433244e-01  1.0000000000000000e+00  -2.0000000000000000e+00  -5.7315344206249419e-01  1.5641914982431518e-01  5.2282038845255541e-01  7.0464131121243490e-01  7.9489108705732370e-01  8.4069263626897173e-01  8.6524970167246529e-01  8.7967101547376036e-01  8.8914429816856222e-01  8.9605318198416306e-01  9.0149207319628188e-01  9.0596841975305431e-01  9.0968203180751450e-01  9.1446976461729246e-01  9.2189732877367003e-01  9.3286888651290112e-01  9.4685770314157802e-01  9.6321276742336526e-01  9.8119308208840339e-01  1.0000000000000000e+00  -2.0000000000000000e+00  -5.5538299858908380e-01  1.8233971108099062e-01  5.5149747343079503e-01  7.3326115564475736e-01  8.2214763292928394e-01  8.6611634111687819e-01  8.8880347687698991e-01  9.0151660732145189e-01  9.0951337068599725e-01  9.1518090178189759e-01  9.1958747860291434e-01  9.2320685218509335e-01  9.2621615409714619e-01  9.3010552847038186e-01  9.3615122375653315e-01  9.4509615263743396e-01  9.5651800838113343e-01  9.6988897123960927e-01  9.8460245027591597e-01  1.0000000000000000e+00  -2.0000000000000000e+00  -5.4172121136276341e-01  2.0228911433265556e-01  5.7361000800561979e-01  7.5538936411958135e-01  8.4329554757585024e-01  8.8592368184830417e-01  9.0723582742212883e-01  9.1868725808423179e-01  9.2558628879428062e-01  9.3032209100275487e-01  9.3394444220122930e-01  9.3690433471938672e-01  9.3936528990109724e-01  9.4254983489089306e-01  9.4750588514464729e-01  9.5484649189916848e-01  9.6422920650591315e-01  9.7522265887802284e-01  9.8732774777565124e-01  1.0000000000000000e+00  -2.0000000000000000e+00  -5.3125822712106574e-01  2.1758694074840892e-01  5.9060184961372875e-01  7.7244119300917546e-01  8.5964783923752686e-01  9.0129783860673451e-01  9.2159853681218962e-01  9.3211569890488954e-01  9.3819547451494567e-01  9.4222914506649547e-01  9.4525404363289944e-01  9.4770610479582540e-01  9.4974095477955123e-01  9.5237464055350973e-01  9.5647599003199457e-01  9.6255472330867986e-01  9.7032966686532851e-01  9.7944470999091848e-01  9.8948588194866660e-01  1.0000000000000000e+00  -2.0000000000000000e+00  -5.2332397054403157e-01  2.2920511039033553e-01  6.0353633141402652e-01  7.8545902657006339e-01  8.7217277176193486e-01  9.1311425149167103e-01  9.3267459505948180e-01  9.4250247028375700e-01  9.4797286079831389e-01  9.5147956181666538e-01  9.5405185777971335e-01  9.5611582321556188e-01  9.5782263905292753e-01  9.6003027833146271e-01  9.6346871112114130e-01  9.6856674443822799e-01  9.7509002765580288e-01  9.8274063227165631e-01  9.9117107002809657e-01  1.0000000000000000e+00  -2.0000000000000000e+00  -5.1743450477132247e-01  2.3784855729309581e-01  6.1318780614206503e-01  7.9520466394656220e-01  8.8158071298809182e-01  9.2201846335940030e-01  9.4104532015969000e-01  9.5037205385269963e-01  9.5539592303921850e-01  9.5851358040192125e-01  9.6074929332384984e-01  9.6252262500769614e-01  9.6398216021971095e-01  9.6586705819505114e-01  9.6880183168287970e-01  9.7315351566728792e-01  9.7872306704799883e-01  9.8525672141180742e-01  9.9245776589206358e-01  1.0000000000000000e+00  -2.0000000000000000e+00  -5.1325742429615306e-01  2.4401082517283212e-01  6.2010642512794834e-01  8.0222467468351344e-01  8.8838500292744504e-01  9.2847998030069390e-01  9.4713632142103799e-01  9.5611112240712337e-01  9.6081912303945149e-01  9.6366017655510472e-01  9.6565569184759437e-01  9.6722079000400041e-01  9.6850195121810179e-01  9.7015194274282179e-01  9.7271804174803855e-01  9.7652241950004515e-01  9.8139200345709654e-01  9.8710542043551031e-01  9.9340327212835045e-01  1.0000000000000000e+00  -2.0000000000000000e+00  -5.1060094395853117e-01  2.4800625301207269e-01  6.2466156186342181e-01  8.0689563683910526e-01  8.9294412031167347e-01  9.3282938557572614e-01  9.5124905008157290e-01  9.5999475707708970e-01  9.6449540853533189e-01  9.6715469481049876e-01  9.6899319811459150e-01  9.7042328527835975e-01  9.7158860262196867e-01  9.7308148364639968e-01  9.7539597306640780e-01  9.7882611712775858e-01  9.8321710684483232e-01  9.8836968474478759e-01  9.9404990218582900e-01  1.0000000000000000e+00  -2.0000000000000000e+00  -5.0944833504325271e-01  2.4997775293999808e-01  6.2706893318907442e-01  8.0945486630738095e-01  8.9549050213954173e-01  9.3528373065486392e-01  9.5358253771409029e-01  9.6220469365495298e-01  9.6659112960558180e-01  9.6915044048313870e-01  9.7090516621920675e-01  9.7226853090538967e-01  9.7338248372111502e-01  9.7479254783579949e-01  9.7695824974343415e-01  9.8016896909974938e-01  9.8428062204968714e-01  9.8910630951297884e-01  9.9442665187017798e-01  1.0000000000000000e+00  -2.0000000000000000e+00  -5.1011994457822418e-01  2.4988232074103020e-01  6.2740943078020528e-01  8.1002177392946006e-01  8.9614976331377461e-01  9.3596343091974732e-01  9.5424832836718221e-01  9.6284262924822128e-01  9.6719768331093359e-01  9.6972754502465208e-01  9.7145916614365591e-01  9.7281454910566467e-01  9.7396375212958330e-01  9.7537464892213355e-01  9.7747550897177971e-01  9.8061088747811676e-01  9.8463010274118867e-01  9.8934827938726277e-01  9.9455039578190485e-01  1.0000000000000000e+00  </DataArray> 
</PointData> 
</Piece>
</UnstructuredGrid>
</VTKFile>