<?xml version="1.0"?>
<VTKFile type="UnstructuredGrid"  version="0.1"  >
<UnstructuredGrid>
<Piece  NumberOfPoints="4225" NumberOfCells="8192">
<Points>
<DataArray  type="Float64"  NumberOfComponents="3"  format="ascii">0 0 0  0.015625 0 0  0.03125 0 0  0.046875 0 0  0.0625 0 0  0.078125 0 0  0.09375 0 0  0.109375 0 0  0.125 0 0  0.140625 0 0  0.15625 0 0  0.171875 0 0  0.1875 0 0  0.203125 0 0  0.21875 0 0  0.234375 0 0  0.25 0 0  0.265625 0 0  0.28125 0 0  0.296875 0 0  0.3125 0 0  0.328125 0 0  0.34375 0 0  0.359375 0 0  0.375 0 0  0.390625 0 0  0.40625 0 0  0.421875 0 0  0.4375 0 0  0.453125 0 0  0.46875 0 0  0.484375 0 0  0.5 0 0  0.515625 0 0  0.53125 0 0  0.546875 0 0  0.5625 0 0  0.578125 0 0  0.59375 0 0  0.609375 0 0  0.625 0 0  0.640625 0 0  0.65625 0 0  0.671875 0 0  0.6875 0 0  0.703125 0 0  0.71875 0 0  0.734375 0 0  0.75 0 0  0.765625 0 0  0.78125 0 0  0.796875 0 0  0.8125 0 0  0.828125 0 0  0.84375 0 0  0.859375 0 0  0.875 0 0  0.890625 0 0  0.90625 0 0  0.921875 0 0  0.9375 0 0  0.953125 0 0  0.96875 0 0  0.984375 0 0  1 0 0  0 0.015625 0  0.015625 0.015625 0  0.03125 0.015625 0  0.046875 0.015625 0  0.0625 0.015625 0  0.078125 0.015625 0  0.09375 0.015625 0  0.109375 0.015625 0  0.125 0.015625 0  0.140625 0.015625 0  0.15625 0.015625 0  0.171875 0.015625 0  0.1875 0.015625 0  0.203125 0.015625 0  0.21875 0.015625 0  0.234375 0.015625 0  0.25 0.015625 0  0.265625 0.015625 0  0.28125 0.015625 0  0.296875 0.015625 0  0.3125 0.015625 0  0.328125 0.015625 0  0.34375 0.015625 0  0.359375 0.015625 0  0.375 0.015625 0  0.390625 0.015625 0  0.40625 0.015625 0  0.421875 0.015625 0  0.4375 0.015625 0  0.453125 0.015625 0  0.46875 0.015625 0  0.484375 0.015625 0  0.5 0.015625 0  0.515625 0.015625 0  0.53125 0.015625 0  0.546875 0.015625 0  0.5625 0.015625 0  0.578125 0.015625 0  0.59375 0.015625 0  0.609375 0.015625 0  0.625 0.015625 0  0.640625 0.015625 0  0.65625 0.015625 0  0.671875 0.015625 0  0.6875 0.015625 0  0.703125 0.015625 0  0.71875 0.015625 0  0.734375 0.015625 0  0.75 0.015625 0  0.765625 0.015625 0  0.78125 0.015625 0  0.796875 0.015625 0  0.8125 0.015625 0  0.828125 0.015625 0  0.84375 0.015625 0  0.859375 0.015625 0  0.875 0.015625 0  0.890625 0.015625 0  0.90625 0.015625 0  0.921875 0.015625 0  0.9375 0.015625 0  0.953125 0.015625 0  0.96875 0.015625 0  0.984375 0.015625 0  1 0.015625 0  0 0.03125 0  0.015625 0.03125 0  0.03125 0.03125 0  0.046875 0.03125 0  0.0625 0.03125 0  0.078125 0.03125 0  0.09375 0.03125 0  0.109375 0.03125 0  0.125 0.03125 0  0.140625 0.03125 0  0.15625 0.03125 0  0.171875 0.03125 0  0.1875 0.03125 0  0.203125 0.03125 0  0.21875 0.03125 0  0.234375 0.03125 0  0.25 0.03125 0  0.265625 0.03125 0  0.28125 0.03125 0  0.296875 0.03125 0  0.3125 0.03125 0  0.328125 0.03125 0  0.34375 0.03125 0  0.359375 0.03125 0  0.375 0.03125 0  0.390625 0.03125 0  0.40625 0.03125 0  0.421875 0.03125 0  0.4375 0.03125 0  0.453125 0.03125 0  0.46875 0.03125 0  0.484375 0.03125 0  0.5 0.03125 0  0.515625 0.03125 0  0.53125 0.03125 0  0.546875 0.03125 0  0.5625 0.03125 0  0.578125 0.03125 0  0.59375 0.03125 0  0.609375 0.03125 0  0.625 0.03125 0  0.640625 0.03125 0  0.65625 0.03125 0  0.671875 0.03125 0  0.6875 0.03125 0  0.703125 0.03125 0  0.71875 0.03125 0  0.734375 0.03125 0  0.75 0.03125 0  0.765625 0.03125 0  0.78125 0.03125 0  0.796875 0.03125 0  0.8125 0.03125 0  0.828125 0.03125 0  0.84375 0.03125 0  0.859375 0.03125 0  0.875 0.03125 0  0.890625 0.03125 0  0.90625 0.03125 0  0.921875 0.03125 0  0.9375 0.03125 0  0.953125 0.03125 0  0.96875 0.03125 0  0.984375 0.03125 0  1 0.03125 0  0 0.046875 0  0.015625 0.046875 0  0.03125 0.046875 0  0.046875 0.046875 0  0.0625 0.046875 0  0.078125 0.046875 0  0.09375 0.046875 0  0.109375 0.046875 0  0.125 0.046875 0  0.140625 0.046875 0  0.15625 0.046875 0  0.171875 0.046875 0  0.1875 0.046875 0  0.203125 0.046875 0  0.21875 0.046875 0  0.234375 0.046875 0  0.25 0.046875 0  0.265625 0.046875 0  0.28125 0.046875 0  0.296875 0.046875 0  0.3125 0.046875 0  0.328125 0.046875 0  0.34375 0.046875 0  0.359375 0.046875 0  0.375 0.046875 0  0.390625 0.046875 0  0.40625 0.046875 0  0.421875 0.046875 0  0.4375 0.046875 0  0.453125 0.046875 0  0.46875 0.046875 0  0.484375 0.046875 0  0.5 0.046875 0  0.515625 0.046875 0  0.53125 0.046875 0  0.546875 0.046875 0  0.5625 0.046875 0  0.578125 0.046875 0  0.59375 0.046875 0  0.609375 0.046875 0  0.625 0.046875 0  0.640625 0.046875 0  0.65625 0.046875 0  0.671875 0.046875 0  0.6875 0.046875 0  0.703125 0.046875 0  0.71875 0.046875 0  0.734375 0.046875 0  0.75 0.046875 0  0.765625 0.046875 0  0.78125 0.046875 0  0.796875 0.046875 0  0.8125 0.046875 0  0.828125 0.046875 0  0.84375 0.046875 0  0.859375 0.046875 0  0.875 0.046875 0  0.890625 0.046875 0  0.90625 0.046875 0  0.921875 0.046875 0  0.9375 0.046875 0  0.953125 0.046875 0  0.96875 0.046875 0  0.984375 0.046875 0  1 0.046875 0  0 0.0625 0  0.015625 0.0625 0  0.03125 0.0625 0  0.046875 0.0625 0  0.0625 0.0625 0  0.078125 0.0625 0  0.09375 0.0625 0  0.109375 0.0625 0  0.125 0.0625 0  0.140625 0.0625 0  0.15625 0.0625 0  0.171875 0.0625 0  0.1875 0.0625 0  0.203125 0.0625 0  0.21875 0.0625 0  0.234375 0.0625 0  0.25 0.0625 0  0.265625 0.0625 0  0.28125 0.0625 0  0.296875 0.0625 0  0.3125 0.0625 0  0.328125 0.0625 0  0.34375 0.0625 0  0.359375 0.0625 0  0.375 0.0625 0  0.390625 0.0625 0  0.40625 0.0625 0  0.421875 0.0625 0  0.4375 0.0625 0  0.453125 0.0625 0  0.46875 0.0625 0  0.484375 0.0625 0  0.5 0.0625 0  0.515625 0.0625 0  0.53125 0.0625 0  0.546875 0.0625 0  0.5625 0.0625 0  0.578125 0.0625 0  0.59375 0.0625 0  0.609375 0.0625 0  0.625 0.0625 0  0.640625 0.0625 0  0.65625 0.0625 0  0.671875 0.0625 0  0.6875 0.0625 0  0.703125 0.0625 0  0.71875 0.0625 0  0.734375 0.0625 0  0.75 0.0625 0  0.765625 0.0625 0  0.78125 0.0625 0  0.796875 0.0625 0  0.8125 0.0625 0  0.828125 0.0625 0  0.84375 0.0625 0  0.859375 0.0625 0  0.875 0.0625 0  0.890625 0.0625 0  0.90625 0.0625 0  0.921875 0.0625 0  0.9375 0.0625 0  0.953125 0.0625 0  0.96875 0.0625 0  0.984375 0.0625 0  1 0.0625 0  0 0.078125 0  0.015625 0.078125 0  0.03125 0.078125 0  0.046875 0.078125 0  0.0625 0.078125 0  0.078125 0.078125 0  0.09375 0.078125 0  0.109375 0.078125 0  0.125 0.078125 0  0.140625 0.078125 0  0.15625 0.078125 0  0.171875 0.078125 0  0.1875 0.078125 0  0.203125 0.078125 0  0.21875 0.078125 0  0.234375 0.078125 0  0.25 0.078125 0  0.265625 0.078125 0  0.28125 0.078125 0  0.296875 0.078125 0  0.3125 0.078125 0  0.328125 0.078125 0  0.34375 0.078125 0  0.359375 0.078125 0  0.375 0.078125 0  0.390625 0.078125 0  0.40625 0.078125 0  0.421875 0.078125 0  0.4375 0.078125 0  0.453125 0.078125 0  0.46875 0.078125 0  0.484375 0.078125 0  0.5 0.078125 0  0.515625 0.078125 0  0.53125 0.078125 0  0.546875 0.078125 0  0.5625 0.078125 0  0.578125 0.078125 0  0.59375 0.078125 0  0.609375 0.078125 0  0.625 0.078125 0  0.640625 0.078125 0  0.65625 0.078125 0  0.671875 0.078125 0  0.6875 0.078125 0  0.703125 0.078125 0  0.71875 0.078125 0  0.734375 0.078125 0  0.75 0.078125 0  0.765625 0.078125 0  0.78125 0.078125 0  0.796875 0.078125 0  0.8125 0.078125 0  0.828125 0.078125 0  0.84375 0.078125 0  0.859375 0.078125 0  0.875 0.078125 0  0.890625 0.078125 0  0.90625 0.078125 0  0.921875 0.078125 0  0.9375 0.078125 0  0.953125 0.078125 0  0.96875 0.078125 0  0.984375 0.078125 0  1 0.078125 0  0 0.09375 0  0.015625 0.09375 0  0.03125 0.09375 0  0.046875 0.09375 0  0.0625 0.09375 0  0.078125 0.09375 0  0.09375 0.09375 0  0.109375 0.09375 0  0.125 0.09375 0  0.140625 0.09375 0  0.15625 0.09375 0  0.171875 0.09375 0  0.1875 0.09375 0  0.203125 0.09375 0  0.21875 0.09375 0  0.234375 0.09375 0  0.25 0.09375 0  0.265625 0.09375 0  0.28125 0.09375 0  0.296875 0.09375 0  0.3125 0.09375 0  0.328125 0.09375 0  0.34375 0.09375 0  0.359375 0.09375 0  0.375 0.09375 0  0.390625 0.09375 0  0.40625 0.09375 0  0.421875 0.09375 0  0.4375 0.09375 0  0.453125 0.09375 0  0.46875 0.09375 0  0.484375 0.09375 0  0.5 0.09375 0  0.515625 0.09375 0  0.53125 0.09375 0  0.546875 0.09375 0  0.5625 0.09375 0  0.578125 0.09375 0  0.59375 0.09375 0  0.609375 0.09375 0  0.625 0.09375 0  0.640625 0.09375 0  0.65625 0.09375 0  0.671875 0.09375 0  0.6875 0.09375 0  0.703125 0.09375 0  0.71875 0.09375 0  0.734375 0.09375 0  0.75 0.09375 0  0.765625 0.09375 0  0.78125 0.09375 0  0.796875 0.09375 0  0.8125 0.09375 0  0.828125 0.09375 0  0.84375 0.09375 0  0.859375 0.09375 0  0.875 0.09375 0  0.890625 0.09375 0  0.90625 0.09375 0  0.921875 0.09375 0  0.9375 0.09375 0  0.953125 0.09375 0  0.96875 0.09375 0  0.984375 0.09375 0  1 0.09375 0  0 0.109375 0  0.015625 0.109375 0  0.03125 0.109375 0  0.046875 0.109375 0  0.0625 0.109375 0  0.078125 0.109375 0  0.09375 0.109375 0  0.109375 0.109375 0  0.125 0.109375 0  0.140625 0.109375 0  0.15625 0.109375 0  0.171875 0.109375 0  0.1875 0.109375 0  0.203125 0.109375 0  0.21875 0.109375 0  0.234375 0.109375 0  0.25 0.109375 0  0.265625 0.109375 0  0.28125 0.109375 0  0.296875 0.109375 0  0.3125 0.109375 0  0.328125 0.109375 0  0.34375 0.109375 0  0.359375 0.109375 0  0.375 0.109375 0  0.390625 0.109375 0  0.40625 0.109375 0  0.421875 0.109375 0  0.4375 0.109375 0  0.453125 0.109375 0  0.46875 0.109375 0  0.484375 0.109375 0  0.5 0.109375 0  0.515625 0.109375 0  0.53125 0.109375 0  0.546875 0.109375 0  0.5625 0.109375 0  0.578125 0.109375 0  0.59375 0.109375 0  0.609375 0.109375 0  0.625 0.109375 0  0.640625 0.109375 0  0.65625 0.109375 0  0.671875 0.109375 0  0.6875 0.109375 0  0.703125 0.109375 0  0.71875 0.109375 0  0.734375 0.109375 0  0.75 0.109375 0  0.765625 0.109375 0  0.78125 0.109375 0  0.796875 0.109375 0  0.8125 0.109375 0  0.828125 0.109375 0  0.84375 0.109375 0  0.859375 0.109375 0  0.875 0.109375 0  0.890625 0.109375 0  0.90625 0.109375 0  0.921875 0.109375 0  0.9375 0.109375 0  0.953125 0.109375 0  0.96875 0.109375 0  0.984375 0.109375 0  1 0.109375 0  0 0.125 0  0.015625 0.125 0  0.03125 0.125 0  0.046875 0.125 0  0.0625 0.125 0  0.078125 0.125 0  0.09375 0.125 0  0.109375 0.125 0  0.125 0.12
[...]
<PointData  Scalars="f_6"> 
<DataArray  type="Float64"  Name="f_6"  format="ascii">-2.0000000000000000e+00  -1.9531250000000000e+00  -1.9062500000000000e+00  -1.8593750000000000e+00  -1.8125000000000000e+00  -1.7656250000000000e+00  -1.7187500000000000e+00  -1.6718750000000000e+00  -1.6250000000000000e+00  -1.5781250000000000e+00  -1.5312500000000000e+00  -1.4843750000000000e+00  -1.4375000000000000e+00  -1.3906250000000000e+00  -1.3437500000000000e+00  -1.2968750000000000e+00  -1.2500000000000000e+00  -1.2031250000000000e+00  -1.1562500000000000e+00  -1.1093750000000000e+00  -1.0625000000000000e+00  -1.0156250000000000e+00  -9.6875000000000000e-01  -9.2187500000000000e-01  -8.7500000000000000e-01  -8.2812500000000000e-01  -7.8125000000000000e-01  -7.3437500000000000e-01  -6.8750000000000000e-01  -6.4062500000000000e-01  -5.9375000000000000e-01  -5.4687500000000000e-01  -5.0000000000000000e-01  -4.5312499999999994e-01  -4.0625000000000000e-01  -3.5937500000000000e-01  -3.1250000000000000e-01  -2.6562500000000000e-01  -2.1875000000000000e-01  -1.7187500000000000e-01  -1.2500000000000000e-01  -7.8125000000000000e-02  -3.1250000000000000e-02  1.5625000000000000e-02  6.2500000000000000e-02  1.0937500000000000e-01  1.5625000000000000e-01  2.0312500000000000e-01  2.5000000000000000e-01  2.9687500000000000e-01  3.4375000000000000e-01  3.9062500000000000e-01  4.3750000000000000e-01  4.8437500000000000e-01  5.3125000000000000e-01  5.7812500000000000e-01  6.2500000000000000e-01  6.7187500000000000e-01  7.1875000000000000e-01  7.6562500000000000e-01  8.1250000000000000e-01  8.5937500000000000e-01  9.0625000000000000e-01  9.5312500000000000e-01  1.0000000000000000e+00  -2.0000000000000000e+00  -1.9132877830891566e+00  -1.8332791317538746e+00  -1.7585439039957433e+00  -1.6881572868951620e+00  -1.6214470852321117e+00  -1.5578916912274345e+00  -1.4970707116983513e+00  -1.4386372330796411e+00  -1.3823003874652753e+00  -1.3278134699926818e+00  -1.2749653615179084e+00  -1.2235740791115304e+00  -1.1734817814337390e+00  -1.1245508157622583e+00  -1.0766605374553750e+00  -1.0297047178187648e+00  -9.8358940969451536e-01  -9.3823117527023414e-01  -8.9355560497298636e-01  -8.4949607408052530e-01  -8.0599269743389435e-01  -7.6299145409611346e-01  -7.2044346428319783e-01  -6.7830441161234267e-01  -6.3653411602709498e-01  -5.9509627809171728e-01  -5.5395843385647214e-01  -5.1309217517706607e-01  -4.7247367814175922e-01  -4.3208447417187335e-01  -3.9191207300606462e-01  -3.5194947553772388e-01  -3.1219264997688023e-01  -2.7263924965564917e-01  -2.3330236623868253e-01  -1.9425472857068238e-01  -1.5560765922691022e-01  -1.1729167601835511e-01  -7.9061933788645275e-02  -4.4508873970739223e-02  -1.1868821625066809e-02  2.1811114552976445e-02  5.7424125130009773e-02  9.6165606538883591e-02  1.3803719196832925e-01  1.8133177963182145e-01  2.2539446039753391e-01  2.6993058284156068e-01  3.1478725502329452e-01  3.5987544008764549e-01  4.0513848755214410e-01  4.5053784324649832e-01  4.9604586392408917e-01  5.4164188505495958e-01  5.8730991518086584e-01  6.3303720557103405e-01  6.7881332027432484e-01  7.2462950674628923e-01  7.7047825441730500e-01  8.1635297457219591e-01  8.6224776039307072e-01  9.0815720070275363e-01  9.5407622966893491e-01  1.0000000000000000e+00  -2.0000000000000000e+00  -1.8765867674444707e+00  -1.7680304162731368e+00  -1.6709088885065062e+00  -1.5828635819781143e+00  -1.5021897391878274e+00  -1.4276079248713827e+00  -1.3581299121959343e+00  -1.2929752797776262e+00  -1.2315167879171443e+00  -1.1732430391954909e+00  -1.1177320570284632e+00  -1.0646320606203701e+00  -1.0136471534663731e+00  -9.6452646596102631e-01  -9.1705578591320702e-01  -8.7105101825990328e-01  -8.2635301374977466e-01  -7.8282343849725133e-01  -7.4034144683988568e-01  -6.9880098382408051e-01  -6.5810859032888314e-01  -6.1818161956403284e-01  -5.7894680288069522e-01  -5.4033912900736736e-01  -5.0230102719948944e-01  -4.6478187492714329e-01  -4.2773788876947549e-01  -3.9113250593998938e-01  -3.5493741282905344e-01  -3.1913435946757379e-01  -2.8371759031603361e-01  -2.4869560600573284e-01  -2.1408867078046256e-01  -1.7992006198200589e-01  -1.4621958036904828e-01  -1.1316421702092536e-01  -8.1278786200191938e-02  -5.0797441162278766e-02  -2.2889302262884555e-02  3.1447731071849289e-03  2.9889265890220305e-02  5.8841361608976413e-02  9.0893110094202437e-02  1.2670110905719534e-01  1.6527638170261222e-01  2.0564546616142249e-01  2.4719047911675351e-01  2.8954061594541436e-01  3.3246799716397213e-01  3.7582601777514352e-01  4.1951566687443248e-01  4.6346702150976005e-01  5.0762872739489928e-01  5.5196176111488338e-01  5.9643557009746950e-01  6.4102558682894595e-01  6.8571156877997685e-01  7.3047645229352731e-01  7.7530553635073451e-01  8.2018588347840826e-01  8.6510586629733388e-01  9.1005481274900801e-01  9.5502271797298599e-01  1.0000000000000000e+00  -2.0000000000000000e+00  -1.8424291309320995e+00  -1.7091639262441300e+00  -1.5938807472769929e+00  -1.4923471944934203e+00  -1.4016081278400105e+00  -1.3195256004472404e+00  -1.2445067192075203e+00  -1.1753354373819567e+00  -1.1110643418520563e+00  -1.0509425388719602e+00  -9.9436610451620133e-01  -9.4084312903274858e-01  -8.8996848785943361e-01  -8.4140526870693133e-01  -7.9487086051456168e-01  -7.5012637548944960e-01  -7.0696849863346423e-01  -6.6522313541464750e-01  -6.2474041307164518e-01  -5.8539071783478658e-01  -5.4706153985005435e-01  -5.0965496321461123e-01  -4.7308568943389284e-01  -4.3727952553605709e-01  -4.0217230851103397e-01  -3.6770928098660194e-01  -3.3384498692839049e-01  -3.0054383853214778e-01  -2.6778165487277350e-01  -2.3554873021285619e-01  -2.0385526942532806e-01  -1.7273962627122358e-01  -1.4227534725932903e-01  -1.1255976948748538e-01  -8.3627266032994918e-02  -5.5534438419131228e-02  -3.0468705059085770e-02  -7.5885561452930170e-03  1.4611295356485792e-02  3.7030306403633619e-02  6.1639072060071888e-02  8.9628335710984733e-02  1.2060584458062820e-01  1.5446933789308309e-01  1.9072175962350177e-01  2.2878322419450289e-01  2.6818137396264341e-01  3.0857340465937111e-01  3.4971809991203623e-01  3.9144496697452397e-01  4.3363114066068231e-01  4.7618584852321011e-01  5.1904026303086481e-01  5.6214086191220514e-01  6.0544501726518274e-01  6.4891800286730317e-01  6.9253091572310954e-01  7.3625919729710887e-01  7.8008155521369771e-01  8.2397915669336874e-01  8.6793500856884842e-01  9.1193346602295899e-01  9.5595982947400060e-01  1.0000000000000000e+00  -2.0000000000000000e+00  -1.8105040301922299e+00  -1.6557334820407150e+00  -1.5255792927362271e+00  -1.4135998874564430e+00  -1.3154765684748959e+00  -1.2281926441805169e+00  -1.1495688135676732e+00  -1.0779861512635300e+00  -1.0122135183836238e+00  -9.5129590778042128e-01  -8.9447982562411321e-01  -8.4116199969929317e-01  -7.9085324623393427e-01  -7.4315246302908233e-01  -6.9772755523153795e-01  -6.5430121278915221e-01  -6.1264015161733498e-01  -5.7254687356818856e-01  -5.3385329061914566e-01  -4.9641575361766371e-01  -4.6011116031501598e-01  -4.2483391335824533e-01  -3.9049357120846984e-01  -3.5701309449489177e-01  -3.2432764558751087e-01  -2.9238395617626628e-01  -2.6114034072298231e-01  -2.3056752112943885e-01  -2.0065062821637636e-01  -1.7139329128852943e-01  -1.4282606716258844e-01  -1.1502426881107820e-01  -8.8147419964861834e-02  -6.2529332411057167e-02  -3.8355116359758086e-02  -1.6512606424663945e-02  3.3652458458166097e-03  2.2975545917521399e-02  4.3329489108102082e-02  6.5323229604131269e-02  9.0008380235448965e-02  1.1742706459426236e-01  1.4743259462424263e-01  1.7984863831100711e-01  2.1435809470380879e-01  2.5058429703044360e-01  2.8817838787994604e-01  3.2685352881739044e-01  3.6638603085027771e-01  4.0660460955023353e-01  4.4737808027056292e-01  4.8860496889153299e-01  5.3020561429314472e-01  5.7211640623788929e-01  6.1428563418375259e-01  6.5667049165197444e-01  6.9923489394804905e-01  7.4194786595810058e-01  7.8478233051357926e-01  8.2771417951252024e-01  8.7072154526173229e-01  9.1378421329997894e-01  9.5688313390005741e-01  1.0000000000000000e+00  -2.0000000000000000e+00  -1.7806137301331078e+00  -1.6070316963282611e+00  -1.4645973358811311e+00  -1.3444342431154375e+00  -1.2408213862618740e+00  -1.1498879360826300e+00  -1.0689108653601380e+00  -9.9591251683832327e-01  -9.2941796393797260e-01  -8.6830236091512059e-01  -8.1169138474830727e-01  -7.5889426595331555e-01  -7.0935752008121189e-01  -6.6263222817573719e-01  -6.1835042324307488e-01  -5.7620774343628034e-01  -5.3595049175552678e-01  -4.9736585675380390e-01  -4.6027444475504581e-01  -4.2452453568423787e-01  -3.8998765199048641e-01  -3.5655515443261138e-01  -3.2413567051077652e-01  -2.9265323734041021e-01  -2.6204611567201208e-01  -2.3226631653650159e-01  -2.0327997120395094e-01  -1.7506874778725356e-01  -1.4763265545098517e-01  -1.2099515175782309e-01  -9.5213352253755296e-02  -7.0403380714071109e-02  -4.6755472643134774e-02  -2.5592462202184234e-02  -6.4895095263607814e-03  1.1473673044787589e-02  2.9089961537736912e-02  4.7769717613617174e-02  6.8399359494438761e-02  9.0924742669340378e-02  1.1564415468333032e-01  1.4263894780637321e-01  1.7184883101107279e-01  2.0313452602289389e-01  2.3627768385028283e-01  2.7101748134351661e-01  3.0709435170930632e-01  3.4427629187996700e-01  3.8236788512145070e-01  4.2120936010556953e-01  4.6067160197980261e-01  5.0065033247921431e-01  5.4106081901229175e-01  5.8183351456245491e-01  6.2291062157996313e-01  6.6424343560879295e-01  7.0579030245901198e-01  7.4751504207366515e-01  7.8938572136999863e-01  8.3137368558140090e-01  8.7345277966558132e-01  9.1559870801516763e-01  9.5778849282625034e-01  1.0000000000000000e+00  -2.0000000000000000e+00  -1.7526128834250601e+00  -1.5625041733052467e+00  -1.4098518549355106e+00  -1.2832146016485098e+00  -1.1754808001854000e+00  -1.0819735315977586e+00  -9.9947739124609991e-01  -9.2570112086897427e-01  -8.5896314690187592e-01  -7.9799858849519023e-01  -7.4183600701350028e-01  -6.8971599296861119e-01  -6.4103580903981483e-01  -5.9531079610925131e-01  -5.5214687565039411e-01  -5.1122058650773083e-01  -4.7226435695318758e-01  -4.3505549365651497e-01  -3.9940786546950380e-01  -3.6516558389767467e-01  -3.3219819944754519e-01  -3.0039708339953375e-01  -2.6967277413494312e-01  -2.3995315856959726e-01  -2.1118246181349790e-01  -1.8332117094847267e-01  -1.5634723395129657e-01  -1.3025905581984107e-01  -1.0508103361007359e-01  -8.0873673958492001e-02  -5.7755072486818007e-02  -3.5945478023068966e-02  -1.6598857395008940e-02  6.5039531345192165e-04  1.7192387469548473e-02  3.3860530325899821e-02  5.1401836071780088e-02  7.0614003504771677e-02  9.1573488586695367e-02  1.1433222689546119e-01  1.3900454802215881e-01  1.6563574093682726e-01  1.9418925559078137e-01  2.2456295091921288e-01  2.5660063333091210e-01  2.9011359278403337e-01  3.2490524573379631e-01  3.6078940187172043e-01  3.9759985764998906e-01  4.3519334377079133e-01  4.7344863506386337e-01  5.1226394003322995e-01  5.5155381471435294e-01  5.9124621141967537e-01  6.3127990196485229e-01  6.7160232674422249e-01  7.1216783820554130e-01  7.5293627850754852e-01  7.9387182731134975e-01  8.3494206177750285e-01  8.7611717980402448e-01  9.1736934626886002e-01  9.5867212938977631e-01  1.0000000000000000e+00  -2.0000000000000000e+00  -1.7263837685481573e+00  -1.5217011256192767e+00  -1.3604892396573793e+00  -1.2286880195706722e+00  -1.1178396255680514e+00  -1.0225199220601557e+00  -9.3907337191608864e-01  -8.6493697632503874e-01  -7.9825492010864807e-01  -7.3764711970002350e-01  -6.8206405563641725e-01  -6.3069234562729382e-01  -5.8289138831442899e-01  -5.3814970734099665e-01  -4.9605417243707983e-01  -4.5626786833757638e-01  -4.1851391587109649e-01  -3.8256348560691689e-01  -3.4822683322026243e-01  -3.1534656732861266e-01  -2.8379261574045639e-01  -2.5345853228260490e-01  -2.2425891274059015e-01  -1.9612779068885330e-01  -1.6901801308728165e-01  -1.4290187652212399e-01  -1.1777391614541335e-01  -9.3657506822578993e-02  -7.0618196344841511e-02  -4.8790828449976356e-02  -2.8478620248968013e-02  -1.0428286610198576e-02  5.6965729569798699e-03  2.1061217025330040e-02  3.6875814644195391e-02  5.3833788421762008e-02  7.2042848918711974e-02  9.1710971746994066e-02  1.1294836445210973e-01  1.3582612830365023e-01  1.6040606957301654e-01  1.8671021232799564e-01  2.1470949949601278e-01  2.4432738873226412e-01  2.7544830577011942e-01  3.0793101072790846e-01  3.4162363657012529e-01  3.7637621222312923e-01  4.1204879983599396e-01  4.4851552226374330e-01  4.8566565447162929e-01  5.2340297787548884e-01  5.6164428839221525e-01  6.0031761443704135e-01  6.3936044811554849e-01  6.7871813119770363e-01  7.1834244511138234e-01  7.5819040643963809e-01  7.9822324759034791e-01  8.3840555441323605e-01  8.7870453150415373e-01  9.1908936786647133e-01  9.5953067846399565e-01  1.0000000000000000e+00  -2.0000000000000000e+00  -1.7018250770373273e+00  -1.4842485339415830e+00  -1.3158233134251422e+00  -1.1798746653179213e+00  -1.0666626447377496e+00  -9.7007827049126960e-01  -8.8607538137573649e-01  -8.1185640050217522e-01  -7.4541875078187658e-01  -6.8528747036939985e-01  -6.3035009183947055e-01  -5.7975063539406901e-01  -5.3281927950902352e-01  -4.8902437492444645e-01  -4.4793890912260598e-01  -4.0921658744937645e-01  -3.7257448268537069e-01  -3.3778028326943349e-01  -3.0464284334234670e-01  -2.7300517291587512e-01  -2.4273930024799367e-01  -2.1374264679561444e-01  -1.8593570717819671e-01  -1.5926093747905770e-01  -1.3368287745603064e-01  -1.0918996009507216e-01  -8.5800107917855070e-02  -6.3575548981439883e-02  -4.2655632804638050e-02  -2.3408498550240107e-02  -6.3204710533659560e-03  9.0623023547744611e-03  2.3751326437678244e-02  3.8857032261800976e-02  5.5123511967047886e-02  7.2555959798240838e-02  9.1224799434311776e-02  1.1123867011238281e-01  1.3268286917109928e-01  1.5561785229401356e-01  1.8008338963826143e-01  2.0608953930612603e-01  2.3361114133300992e-01  2.6258879874371149e-01  2.9293419028939294e-01  3.2453850778735593e-01  3.5728207759566777e-01  3.9104301061467733e-01  4.2570360720711437e-01  4.6115429097655880e-01  4.9729548268342194e-01  5.3403802860488103e-01  5.7130274654197799e-01  6.0901950982072661e-01  6.4712614486259734e-01  6.8556730481966099e-01  7.2429340460264657e-01  7.6325965454927358e-01  8.0242520219716829e-01  8.4175237678094006e-01  8.8120602393288250e-01  9.2075291522887637e-01  9.6036121659973528e-01  1.0000000000000000e+00  -2.0000000000000000e+00  -1.6788464070885776e+00  -1.4498298436223536e+00  -1.2752934736318455e+00  -1.1359946004350132e+00  -1.0209862035529598e+00  -9.2353617908734875e-01  -8.3925300246160839e-01  -7.6513680892219371e-01  -6.9906126647982691e-01  -6.3947306213699917e-01  -5.8520879321174790e-01  -5.3537872844610845e-01  -4.8929042856519056e-01  -4.4639706730695733e-01  -4.0626158474169966e-01  -3.6853129736280399e-01  -3.3291960642954138e-01  -2.9919265326845412e-01  -2.6715951900290419e-01  -2.3666505122459461e-01  -2.0758473625692653e-01  -1.7982129442458264e-01  -1.5330289521277357e-01  -1.2798305906015603e-01  -1.0384238145584826e-01  -8.0892533332681787e-02  -5.9187379581099042e-02  -3.8857008152661798e-02  -2.0294850511037115e-02  -3.8696122832361859e-03  1.0973852154286950e-02  2.5227739618540683e-02  3.9855674274885067e-02  5.5492073617147739e-02  7.2205241163954340e-02  9.0041739369841708e-02  1.0906171890791147e-01  1.2933604009712621e-01  1.5092658982589116e-01  1.7387902206304329e-01  1.9822009737988963e-01  2.2395341392523715e-01  2.5105672778618943e-01  2.7948247462017911e-01  3.0916114885638502e-01  3.4000675253645457e-01  3.7192315541051296e-01  4.0481014543279809e-01  4.3856832740122748e-01  4.7310255175195554e-01  5.0832395668061880e-01  5.4415090731863536e-01  5.8050915935008929e-01  6.1733153344129010e-01  6.5455731669445283e-01  6.9213153861569643e-01  7.3000421393026949e-01  7.6812960495764138e-01  8.0646552986811182e-01  8.4497272658047395e-01  8.8361427221755950e-01  9.2235505251641670e-01  9.6116127270606910e-01  1.0000000000000000e+00  -2.0000000000000000e+00  -1.6573653846375840e+00  -1.4181736525039694e+00  -1.2384355206061513e+00  -1.0964174997863199e+00  -9.8004549546872177e-01  -8.8202312220408619e-01  -7.9765406848716180e-01  -7.2376394395746013e-01  -6.5812183002010993e-01  -5.9910949099995825e-01  -5.4552214811296529e-01  -4.9644323355042497e-01  -4.5116277202267568e-01  -4.0912255441956208e-01  -3.6987835423697873e-01  -3.3307332980141036e-01  -2.9841898274885353e-01  -2.6568136620930388e-01  -2.3467105223931981e-01  -2.0523589790719382e-01  -1.7725603009516802e-01  -1.5064080663930310e-01  -1.2532790601271304e-01  -1.0128519849249179e-01  -7.8516390464499861e-02  -5.7070744134493263e-02  -3.7065852107645451e-02  -1.8864215648563425e-02  -2.8354312056334601e-03  1.1624614348384932e-02  2.5537223324415183e-02  3.9805041901112580e-02  5.4951557426173608e-02  7.1050346767950565e-02  8.8163639701780039e-02  1.0634403760926003e-01  1.2564429673036626e-01  1.4611718154231926e-01  1.6780842797229586e-01  1.9075154875237882e-01  2.1496456389301666e-01  2.4044729122874325e-01  2.6717988126633130e-01  2.9512322309443051e-01  3.2422117797951361e-01  3.5440419809156415e-01  3.8559364607713059e-01  4.1770608830477535e-01  4.5065700521304203e-01  4.8436363194941678e-01  5.1874688496846233e-01  5.5373248463895242e-01  5.8925145009845381e-01  6.2524014789989113e-01  6.6164004985822800e-01  6.9839731901840263e-01  7.3546230754509501e-01  7.7278902148290984e-01  8.1033458573716366e-01  8.4805872745528399e-01  8.8592328584046454e-01  9.2389174991316192e-01  9.6192882170812510e-01  1.0000000000000000e+00  -2.0000000000000000e+00  -1.6373060762743157e+00  -1.3890450070118132e+00  -1.2048607467932182e+00  -1.0606272507533336e+00  -9.4322445462546400e-01  -8.4484656043881357e-01  -7.6052845444864636e-01  -6.8694497898224249e-01  -6.2177658816597070e-01  -5.6335105818114617e-01  -5.1042987426848352e-01  -4.6207507113936952e-01  -4.1756307973562146e-01  -3.7632721731901952e-01  -3.3791828054291279e-01  -3.0197695933027724e-01  -2.6821420773404531e-01  -2.3639713549526378e-01  -2.0633886012765051e-01  -1.7789132648212089e-01  -1.5094051561262090e-01  -1.2540388509556477e-01  -1.0123059150926103e-01  -7.8406644961461880e-02  -5.6970502570802398e-02  -3.7042253313401469e-02  -1.8925329899707265e-02  -3.0554686293104549e-03  1.1168147813685232e-02  2.4803677832811052e-02  3.8759919078696060e-02  5.3503647235320820e-02  6.9095166760746229e-02  8.5594116326700900e-02  1.0305493326595523e-01  1.2152647463505215e-01  1.4105424886197429e-01  1.6167996136948873e-01  1.8343839176859419e-01  2.0635418108115955e-01  2.3043931821105496e-01  2.5569130583038785e-01  2.8209228295596189e-01  3.0960935851169807e-01  3.3819614187567498e-01  3.6779521577315755e-01  3.9834114250166980e-01  4.2976355649613068e-01  4.6198997319674850e-01  4.9494808586420735e-01  5.2856746660486131e-01  5.6278069617025805e-01  5.9752400850488274e-01  6.3273755820159239e-01  6.6836541582016518e-01  7.0435538005459131e-01  7.4065867574879762e-01  7.7722958769173967e-01  8.1402506414234865e-01  8.5100431166303370e-01  8.8812839377585240e-01  9.2535983958764101e-01  9.6266226421326961e-01  1.0000000000000000e+00  -2.0000000000000000e+00  -1.6185980667045681e+00  -1.3622389941176529e+00  -1.1742405743753168e+00  -1.0281964651558382e+00  -9.1002039803384815e-01  -8.1144764356679611e-01  -7.2727601443121381e-01  -6.5404989144538972e-01  -5.8937441125134504e-01  -5.3153229903616228e-01  -4.7925744280659127e-01  -4.3159478611026425e-01  -3.8781024799995101e-01  -3.4733092279835476e-01  -3.0970431249544322e-01  -2.7456993625650206e-01  -2.4163925394645436e-01  -2.1068136550090311e-01  -1.8151288310102442e-01  -1.5399097687674190e-01  -1.2800902596433261e-01  -1.0349473157860190e-01  -8.0411437107113681e-02  -5.8766791338923541e-02  -3.8650126577746038e-02  -2.0353864119511279e-02  -4.4284190536443219e-03  9.7011935959509799e-03  2.3127395154842030e-02  3.6802340361562408e-02 