<?xml version="1.0"?>
<VTKFile type="UnstructuredGrid"  version="0.1"  >
<UnstructuredGrid>
<Piece  NumberOfPoints="4225" NumberOfCells="8192">
<Points>
<DataArray  type="Float64"  NumberOfComponents="3"  format="ascii">0 0 0  0.015625 0 0  0.03125 0 0  0.046875 0 0  0.0625 0 0  0.078125 0 0  0.09375 0 0  0.109375 0 0  0.125 0 0  0.140625 0 0  0.15625 0 0  0.171875 0 0  0.1875 0 0  0.203125 0 0  0.21875 0 0  0.234375 0 0  0.25 0 0  0.265625 0 0  0.28125 0 0  0.296875 0 0  0.3125 0 0  0.328125 0 0  0.34375 0 0  0.359375 0 0  0.375 0 0  0.390625 0 0  0.40625 0 0  0.421875 0 0  0.4375 0 0  0.453125 0 0  0.46875 0 0  0.484375 0 0  0.5 0 0  0.515625 0 0  0.53125 0 0  0.546875 0 0  0.5625 0 0  0.578125 0 0  0.59375 0 0  0.609375 0 0  0.625 0 0  0.640625 0 0  0.65625 0 0  0.671875 0 0  0.6875 0 0  0.703125 0 0  0.71875 0 0  0.734375 0 0  0.75 0 0  0.765625 0 0  0.78125 0 0  0.796875 0 0  0.8125 0 0  0.828125 0 0  0.84375 0 0  0.859375 0 0  0.875 0 0  0.890625 0 0  0.90625 0 0  0.921875 0 0  0.9375 0 0  0.953125 0 0  0.96875 0 0  0.984375 0 0  1 0 0  0 0.015625 0  0.015625 0.015625 0  0.03125 0.015625 0  0.046875 0.015625 0  0.0625 0.015625 0  0.078125 0.015625 0  0.09375 0.015625 0  0.109375 0.015625 0  0.125 0.015625 0  0.140625 0.015625 0  0.15625 0.015625 0  0.171875 0.015625 0  0.1875 0.015625 0  0.203125 0.015625 0  0.21875 0.015625 0  0.234375 0.015625 0  0.25 0.015625 0  0.265625 0.015625 0  0.28125 0.015625 0  0.296875 0.015625 0  0.3125 0.015625 0  0.328125 0.015625 0  0.34375 0.015625 0  0.359375 0.015625 0  0.375 0.015625 0  0.390625 0.015625 0  0.40625 0.015625 0  0.421875 0.015625 0  0.4375 0.015625 0  0.453125 0.015625 0  0.46875 0.015625 0  0.484375 0.015625 0  0.5 0.015625 0  0.515625 0.015625 0  0.53125 0.015625 0  0.546875 0.015625 0  0.5625 0.015625 0  0.578125 0.015625 0  0.59375 0.015625 0  0.609375 0.015625 0  0.625 0.015625 0  0.640625 0.015625 0  0.65625 0.015625 0  0.671875 0.015625 0  0.6875 0.015625 0  0.703125 0.015625 0  0.71875 0.015625 0  0.734375 0.015625 0  0.75 0.015625 0  0.765625 0.015625 0  0.78125 0.015625 0  0.796875 0.015625 0  0.8125 0.015625 0  0.828125 0.015625 0  0.84375 0.015625 0  0.859375 0.015625 0  0.875 0.015625 0  0.890625 0.015625 0  0.90625 0.015625 0  0.921875 0.015625 0  0.9375 0.015625 0  0.953125 0.015625 0  0.96875 0.015625 0  0.984375 0.015625 0  1 0.015625 0  0 0.03125 0  0.015625 0.03125 0  0.03125 0.03125 0  0.046875 0.03125 0  0.0625 0.03125 0  0.078125 0.03125 0  0.09375 0.03125 0  0.109375 0.03125 0  0.125 0.03125 0  0.140625 0.03125 0  0.15625 0.03125 0  0.171875 0.03125 0  0.1875 0.03125 0  0.203125 0.03125 0  0.21875 0.03125 0  0.234375 0.03125 0  0.25 0.03125 0  0.265625 0.03125 0  0.28125 0.03125 0  0.296875 0.03125 0  0.3125 0.03125 0  0.328125 0.03125 0  0.34375 0.03125 0  0.359375 0.03125 0  0.375 0.03125 0  0.390625 0.03125 0  0.40625 0.03125 0  0.421875 0.03125 0  0.4375 0.03125 0  0.453125 0.03125 0  0.46875 0.03125 0  0.484375 0.03125 0  0.5 0.03125 0  0.515625 0.03125 0  0.53125 0.03125 0  0.546875 0.03125 0  0.5625 0.03125 0  0.578125 0.03125 0  0.59375 0.03125 0  0.609375 0.03125 0  0.625 0.03125 0  0.640625 0.03125 0  0.65625 0.03125 0  0.671875 0.03125 0  0.6875 0.03125 0  0.703125 0.03125 0  0.71875 0.03125 0  0.734375 0.03125 0  0.75 0.03125 0  0.765625 0.03125 0  0.78125 0.03125 0  0.796875 0.03125 0  0.8125 0.03125 0  0.828125 0.03125 0  0.84375 0.03125 0  0.859375 0.03125 0  0.875 0.03125 0  0.890625 0.03125 0  0.90625 0.03125 0  0.921875 0.03125 0  0.9375 0.03125 0  0.953125 0.03125 0  0.96875 0.03125 0  0.984375 0.03125 0  1 0.03125 0  0 0.046875 0  0.015625 0.046875 0  0.03125 0.046875 0  0.046875 0.046875 0  0.0625 0.046875 0  0.078125 0.046875 0  0.09375 0.046875 0  0.109375 0.046875 0  0.125 0.046875 0  0.140625 0.046875 0  0.15625 0.046875 0  0.171875 0.046875 0  0.1875 0.046875 0  0.203125 0.046875 0  0.21875 0.046875 0  0.234375 0.046875 0  0.25 0.046875 0  0.265625 0.046875 0  0.28125 0.046875 0  0.296875 0.046875 0  0.3125 0.046875 0  0.328125 0.046875 0  0.34375 0.046875 0  0.359375 0.046875 0  0.375 0.046875 0  0.390625 0.046875 0  0.40625 0.046875 0  0.421875 0.046875 0  0.4375 0.046875 0  0.453125 0.046875 0  0.46875 0.046875 0  0.484375 0.046875 0  0.5 0.046875 0  0.515625 0.046875 0  0.53125 0.046875 0  0.546875 0.046875 0  0.5625 0.046875 0  0.578125 0.046875 0  0.59375 0.046875 0  0.609375 0.046875 0  0.625 0.046875 0  0.640625 0.046875 0  0.65625 0.046875 0  0.671875 0.046875 0  0.6875 0.046875 0  0.703125 0.046875 0  0.71875 0.046875 0  0.734375 0.046875 0  0.75 0.046875 0  0.765625 0.046875 0  0.78125 0.046875 0  0.796875 0.046875 0  0.8125 0.046875 0  0.828125 0.046875 0  0.84375 0.046875 0  0.859375 0.046875 0  0.875 0.046875 0  0.890625 0.046875 0  0.90625 0.046875 0  0.921875 0.046875 0  0.9375 0.046875 0  0.953125 0.046875 0  0.96875 0.046875 0  0.984375 0.046875 0  1 0.046875 0  0 0.0625 0  0.015625 0.0625 0  0.03125 0.0625 0  0.046875 0.0625 0  0.0625 0.0625 0  0.078125 0.0625 0  0.09375 0.0625 0  0.109375 0.0625 0  0.125 0.0625 0  0.140625 0.0625 0  0.15625 0.0625 0  0.171875 0.0625 0  0.1875 0.0625 0  0.203125 0.0625 0  0.21875 0.0625 0  0.234375 0.0625 0  0.25 0.0625 0  0.265625 0.0625 0  0.28125 0.0625 0  0.296875 0.0625 0  0.3125 0.0625 0  0.328125 0.0625 0  0.34375 0.0625 0  0.359375 0.0625 0  0.375 0.0625 0  0.390625 0.0625 0  0.40625 0.0625 0  0.421875 0.0625 0  0.4375 0.0625 0  0.453125 0.0625 0  0.46875 0.0625 0  0.484375 0.0625 0  0.5 0.0625 0  0.515625 0.0625 0  0.53125 0.0625 0  0.546875 0.0625 0  0.5625 0.0625 0  0.578125 0.0625 0  0.59375 0.0625 0  0.609375 0.0625 0  0.625 0.0625 0  0.640625 0.0625 0  0.65625 0.0625 0  0.671875 0.0625 0  0.6875 0.0625 0  0.703125 0.0625 0  0.71875 0.0625 0  0.734375 0.0625 0  0.75 0.0625 0  0.765625 0.0625 0  0.78125 0.0625 0  0.796875 0.0625 0  0.8125 0.0625 0  0.828125 0.0625 0  0.84375 0.0625 0  0.859375 0.0625 0  0.875 0.0625 0  0.890625 0.0625 0  0.90625 0.0625 0  0.921875 0.0625 0  0.9375 0.0625 0  0.953125 0.0625 0  0.96875 0.0625 0  0.984375 0.0625 0  1 0.0625 0  0 0.078125 0  0.015625 0.078125 0  0.03125 0.078125 0  0.046875 0.078125 0  0.0625 0.078125 0  0.078125 0.078125 0  0.09375 0.078125 0  0.109375 0.078125 0  0.125 0.078125 0  0.140625 0.078125 0  0.15625 0.078125 0  0.171875 0.078125 0  0.1875 0.078125 0  0.203125 0.078125 0  0.21875 0.078125 0  0.234375 0.078125 0  0.25 0.078125 0  0.265625 0.078125 0  0.28125 0.078125 0  0.296875 0.078125 0  0.3125 0.078125 0  0.328125 0.078125 0  0.34375 0.078125 0  0.359375 0.078125 0  0.375 0.078125 0  0.390625 0.078125 0  0.40625 0.078125 0  0.421875 0.078125 0  0.4375 0.078125 0  0.453125 0.078125 0  0.46875 0.078125 0  0.484375 0.078125 0  0.5 0.078125 0  0.515625 0.078125 0  0.53125 0.078125 0  0.546875 0.078125 0  0.5625 0.078125 0  0.578125 0.078125 0  0.59375 0.078125 0  0.609375 0.078125 0  0.625 0.078125 0  0.640625 0.078125 0  0.65625 0.078125 0  0.671875 0.078125 0  0.6875 0.078125 0  0.703125 0.078125 0  0.71875 0.078125 0  0.734375 0.078125 0  0.75 0.078125 0  0.765625 0.078125 0  0.78125 0.078125 0  0.796875 0.078125 0  0.8125 0.078125 0  0.828125 0.078125 0  0.84375 0.078125 0  0.859375 0.078125 0  0.875 0.078125 0  0.890625 0.078125 0  0.90625 0.078125 0  0.921875 0.078125 0  0.9375 0.078125 0  0.953125 0.078125 0  0.96875 0.078125 0  0.984375 0.078125 0  1 0.078125 0  0 0.09375 0  0.015625 0.09375 0  0.03125 0.09375 0  0.046875 0.09375 0  0.0625 0.09375 0  0.078125 0.09375 0  0.09375 0.09375 0  0.109375 0.09375 0  0.125 0.09375 0  0.140625 0.09375 0  0.15625 0.09375 0  0.171875 0.09375 0  0.1875 0.09375 0  0.203125 0.09375 0  0.21875 0.09375 0  0.234375 0.09375 0  0.25 0.09375 0  0.265625 0.09375 0  0.28125 0.09375 0  0.296875 0.09375 0  0.3125 0.09375 0  0.328125 0.09375 0  0.34375 0.09375 0  0.359375 0.09375 0  0.375 0.09375 0  0.390625 0.09375 0  0.40625 0.09375 0  0.421875 0.09375 0  0.4375 0.09375 0  0.453125 0.09375 0  0.46875 0.09375 0  0.484375 0.09375 0  0.5 0.09375 0  0.515625 0.09375 0  0.53125 0.09375 0  0.546875 0.09375 0  0.5625 0.09375 0  0.578125 0.09375 0  0.59375 0.09375 0  0.609375 0.09375 0  0.625 0.09375 0  0.640625 0.09375 0  0.65625 0.09375 0  0.671875 0.09375 0  0.6875 0.09375 0  0.703125 0.09375 0  0.71875 0.09375 0  0.734375 0.09375 0  0.75 0.09375 0  0.765625 0.09375 0  0.78125 0.09375 0  0.796875 0.09375 0  0.8125 0.09375 0  0.828125 0.09375 0  0.84375 0.09375 0  0.859375 0.09375 0  0.875 0.09375 0  0.890625 0.09375 0  0.90625 0.09375 0  0.921875 0.09375 0  0.9375 0.09375 0  0.953125 0.09375 0  0.96875 0.09375 0  0.984375 0.09375 0  1 0.09375 0  0 0.109375 0  0.015625 0.109375 0  0.03125 0.109375 0  0.046875 0.109375 0  0.0625 0.109375 0  0.078125 0.109375 0  0.09375 0.109375 0  0.109375 0.109375 0  0.125 0.109375 0  0.140625 0.109375 0  0.15625 0.109375 0  0.171875 0.109375 0  0.1875 0.109375 0  0.203125 0.109375 0  0.21875 0.109375 0  0.234375 0.109375 0  0.25 0.109375 0  0.265625 0.109375 0  0.28125 0.109375 0  0.296875 0.109375 0  0.3125 0.109375 0  0.328125 0.109375 0  0.34375 0.109375 0  0.359375 0.109375 0  0.375 0.109375 0  0.390625 0.109375 0  0.40625 0.109375 0  0.421875 0.109375 0  0.4375 0.109375 0  0.453125 0.109375 0  0.46875 0.109375 0  0.484375 0.109375 0  0.5 0.109375 0  0.515625 0.109375 0  0.53125 0.109375 0  0.546875 0.109375 0  0.5625 0.109375 0  0.578125 0.109375 0  0.59375 0.109375 0  0.609375 0.109375 0  0.625 0.109375 0  0.640625 0.109375 0  0.65625 0.109375 0  0.671875 0.109375 0  0.6875 0.109375 0  0.703125 0.109375 0  0.71875 0.109375 0  0.734375 0.109375 0  0.75 0.109375 0  0.765625 0.109375 0  0.78125 0.109375 0  0.796875 0.109375 0  0.8125 0.109375 0  0.828125 0.109375 0  0.84375 0.109375 0  0.859375 0.109375 0  0.875 0.109375 0  0.890625 0.109375 0  0.90625 0.109375 0  0.921875 0.109375 0  0.9375 0.109375 0  0.953125 0.109375 0  0.96875 0.109375 0  0.984375 0.109375 0  1 0.109375 0  0 0.125 0  0.015625 0.125 0  0.03125 0.125 0  0.046875 0.125 0  0.0625 0.125 0  0.078125 0.125 0  0.09375 0.125 0  0.109375 0.125 0  0.125 0.12
[...]
<PointData  Scalars="f_6"> 
<DataArray  type="Float64"  Name="f_6"  format="ascii">-2.0000000000000000e+00  -1.9531250000000000e+00  -1.9062500000000000e+00  -1.8593750000000000e+00  -1.8125000000000000e+00  -1.7656250000000000e+00  -1.7187500000000000e+00  -1.6718750000000000e+00  -1.6250000000000000e+00  -1.5781250000000000e+00  -1.5312500000000000e+00  -1.4843750000000000e+00  -1.4375000000000000e+00  -1.3906250000000000e+00  -1.3437500000000000e+00  -1.2968750000000000e+00  -1.2500000000000000e+00  -1.2031250000000000e+00  -1.1562500000000000e+00  -1.1093750000000000e+00  -1.0625000000000000e+00  -1.0156250000000000e+00  -9.6875000000000000e-01  -9.2187500000000000e-01  -8.7500000000000000e-01  -8.2812500000000000e-01  -7.8125000000000000e-01  -7.3437500000000000e-01  -6.8750000000000000e-01  -6.4062500000000000e-01  -5.9375000000000000e-01  -5.4687500000000000e-01  -5.0000000000000000e-01  -4.5312499999999994e-01  -4.0625000000000000e-01  -3.5937500000000000e-01  -3.1250000000000000e-01  -2.6562500000000000e-01  -2.1875000000000000e-01  -1.7187500000000000e-01  -1.2500000000000000e-01  -7.8125000000000000e-02  -3.1250000000000000e-02  1.5625000000000000e-02  6.2500000000000000e-02  1.0937500000000000e-01  1.5625000000000000e-01  2.0312500000000000e-01  2.5000000000000000e-01  2.9687500000000000e-01  3.4375000000000000e-01  3.9062500000000000e-01  4.3750000000000000e-01  4.8437500000000000e-01  5.3125000000000000e-01  5.7812500000000000e-01  6.2500000000000000e-01  6.7187500000000000e-01  7.1875000000000000e-01  7.6562500000000000e-01  8.1250000000000000e-01  8.5937500000000000e-01  9.0625000000000000e-01  9.5312500000000000e-01  1.0000000000000000e+00  -2.0000000000000000e+00  -1.9132717225839952e+00  -1.8332349130678225e+00  -1.7584627497041418e+00  -1.6880331898118526e+00  -1.6212763905219036e+00  -1.5576727494256182e+00  -1.4968035762144609e+00  -1.4383233893098000e+00  -1.3819425070513884e+00  -1.3274151869076194e+00  -1.2745310681210931e+00  -1.2231087409396288e+00  -1.1729907697162403e+00  -1.1240397567138021e+00  -1.0761351774013614e+00  -1.0291708031897147e+00  -9.8305258086603886e-01  -9.3769687309369643e-01  -8.9302898859625446e-01  -8.4898194827392759e-01  -8.0549544712605092e-01  -7.6251498324356382e-01  -7.1999113563569916e-01  -6.7787898356560494e-01  -6.3613767324495485e-01  -5.9473015647029193e-01  -5.5362315496585668e-01  -5.1278744571820500e-01  -4.7219859637265738e-01  -4.3183821610977935e-01  -3.9169539301930323e-01  -3.5176692583984454e-01  -3.1205366919529298e-01  -2.7255358014415393e-01  -2.3327071646609218e-01  -1.9426691292816417e-01  -1.5564958563161332e-01  -1.1735346198430993e-01  -7.9135942263100070e-02  -4.4581020811304516e-02  -1.1929406420722320e-02  2.1762065078231640e-02  5.7385050690842966e-02  9.6133372044846011e-02  1.3800960797725331e-01  1.8130770996741277e-01  2.2537321975776839e-01  2.6991171184667195e-01  3.1477042343875589e-01  3.5986039929658170e-01  4.0512504443691244e-01  4.5052584449779548e-01  4.9603518595194435e-01  5.4163242716240045e-01  5.8730159476562915e-01  6.3302995465550282e-01  6.7880708294313385e-01  7.2462423722668090e-01  7.7047391562902956e-01  8.1634953703049262e-01  8.6224520138489058e-01  9.0815550368101206e-01  9.5407538382681978e-01  1.0000000000000000e+00  -1.9999999999999998e+00  -1.8765487131516225e+00  -1.7679242273139470e+00  -1.6707166233981503e+00  -1.5825759866408793e+00  -1.5018038752656087e+00  -1.4271254751548379e+00  -1.3575559323688371e+00  -1.2923172564578125e+00  -1.2307839140243617e+00  -1.1724456479442713e+00  -1.1168811745373415e+00  -1.0637390490904739e+00  -1.0127234247884203e+00  -9.6358325099040165e-01  -9.1610394840179532e-01  -8.7010090507529225e-01  -8.2541433484977822e-01  -7.8190517132757464e-01  -7.3945176047863093e-01  -6.9794717837981435e-01  -6.5729704689498714e-01  -6.1741775553339329e-01  -5.7823502663763138e-01  -5.3968278674111592e-01  -5.0170233271081455e-01  -4.6424181262392933e-01  -4.2725608932075354e-01  -3.9070713759685638e-01  -3.5456525686532175e-01  -3.1881150806228858e-01  -2.8344161122650458e-01  -2.4847008015148184e-01  -2.1392844270121900e-01  -1.7984519155271553e-01  -1.4623201010649980e-01  -1.1324378417411714e-01  -8.1393938924324324e-02  -5.0934109926339170e-02  -2.3026661594307309e-02  3.0222741766002788e-03  2.9784053377675580e-02  5.8753720170551138e-02  9.0820051626034598e-02  1.2663882951128774e-01  1.6522234989675455e-01  2.0559801213462942e-01  2.4714845721698875e-01  2.8950320419016362e-01  3.3243458261177006e-01  3.7579612931065842e-01  4.1948893395327230e-01  4.6344314760232530e-01  5.0760747214758151e-01  5.5194292793202815e-01  5.9641899724461367e-01  6.4101114091324785e-01  6.8569913989035269e-01  7.3046595033456030e-01  7.7529688825894472e-01  8.2017903110805057e-01  8.6510076482805842e-01  9.1005142951233742e-01  9.5502103162626684e-01  1.0000000000000000e+00  -2.0000000000000000e+00  -1.8423640093871934e+00  -1.7089828360192199e+00  -1.5935590173785041e+00  -1.4918766643761232e+00  -1.4009911605391447e+00  -1.3187712577006245e+00  -1.2436282495414244e+00  -1.1743485873266426e+00  -1.1099861982591330e+00  -1.0497907227750458e+00  -9.9315820301896995e-01  -9.3959629167417580e-01  -8.8869913876647588e-01  -8.4012890169830434e-01  -7.9360189464763664e-01  -7.4887805537412899e-01  -7.0575282836620112e-01  -6.6405083791671271e-01  -6.2362090837288975e-01  -5.8433211471994417e-01  -5.4607063554245894e-01  -5.0873724565633105e-01  -4.7224533624191678e-01  -4.3651939208494067e-01  -4.0149389261438989e-01  -3.6711264061626431e-01  -3.3332857288122675e-01  -3.0010420729480358e-01  -2.6741310989966255e-01  -2.3524324797310542e-01  -2.0360393385373091e-01  -1.7253878751956195e-01  -1.4214233986788419e-01  -1.1253597323216104e-01  -8.3717958581449509e-02  -5.5709818844945802e-02  -3.0676028072624088e-02  -7.7938603488916271e-03  1.4423745022451619e-02  3.6867773882564049e-02  6.1499650058302165e-02  8.9508587809084911e-02  1.2050260613145652e-01  1.5437954447751581e-01  1.9064294996384776e-01  2.2871353145736170e-01  2.6811939278539376e-01  3.0851806508522361e-01  3.4966857350750241e-01  3.9140060138100996e-01  4.3359141446319310e-01  4.7615033981065202e-01  5.1900862710402840e-01  5.6211281517351686e-01  6.0542032536754897e-01  6.4889647186252264e-01  6.9251238537046944e-01  7.3624353596226266e-01  7.8006865596413844e-01  8.2396893431470664e-01  8.6792739730695523e-01  9.1192841791401269e-01  9.5595731316590971e-01  1.0000000000000000e+00  -2.0000000000000000e+00  -1.8104074200558367e+00  -1.6554680575558818e+00  -1.5251174280695536e+00  -1.4129389765542240e+00  -1.3146280440661615e+00  -1.2271756257994137e+00  -1.1484063387551011e+00  -1.0767028952008133e+00  -1.0108343960216541e+00  -9.4984521223406226e-01  -8.9298069926312007e-01  -8.3963611522495962e-01  -7.8932062218729071e-01  -7.4163136639517757e-01  -6.9623446107687970e-01  -6.5285080163108200e-01  -6.1124533197776865e-01  -5.7121882133224233e-01  -5.3260149922543676e-01  -4.9524809029484157e-01  -4.5903392405828192e-01  -4.2385189072594903e-01  -3.8961008680221249e-01  -3.5623005339928232e-01  -3.2364556069662143e-01  -2.9180193426430107e-01  -2.6065595626940730e-01  -2.3017643992439599e-01  -2.0034578614390378e-01  -1.7116347344677685e-01  -1.4265423932731477e-01  -1.1488923867039889e-01  -8.8052873613502100e-02  -6.2570765306074097e-02  -3.8549151401214253e-02  -1.6774889919954981e-02  3.0978079311755583e-03  2.2723888024256934e-02  4.3104399802251676e-02  6.5127889363149824e-02  8.9838185163884185e-02  1.1727837487602981e-01  1.4730224061319072e-01  1.7973379230347122e-01  2.1425637402375913e-01  2.5049377094557540e-01  2.8809751738200096e-01  3.2678108985783472e-01  3.6632104495200585e-01  4.0654628824268613e-01  4.4732578270783802e-01  4.8855817007306113e-01  5.3016388128436320e-01  5.7207938029046146e-01  6.1425301718954295e-01  6.5664203579882396e-01  6.9921039376673955e-01  7.4192715217988281e-01  7.8476526532064006e-01  8.2770065287968231e-01  8.7071147217104317e-01  9.1377753167084863e-01  9.5687980312335918e-01  1.0000000000000000e+00  -2.0000000000000000e+00  -1.7804817662609427e+00  -1.6066751562669213e+00  -1.4639898733778580e+00  -1.3435827506205349e+00  -1.2397490910696376e+00  -1.1486254912985645e+00  -1.0674915585904661e+00  -9.9436967169679702e-01  -9.2778354170309874e-01  -8.6660623280463389e-01  -8.0996098402891370e-01  -7.5715445635857637e-01  -7.0763058687226488e-01  -6.6093793754256802e-01  -6.1670611842916845e-01  -5.7462845928030726e-01  -5.3444907721131529e-01  -4.9595309949555527e-01  -4.5895919433966009e-01  -4.2331382261681100e-01  -3.8888680013255716e-01  -3.5556788471444412e-01  -3.2326419671697754e-01  -2.9189836097661359e-01  -2.6140733213423811e-01  -2.3174193099458817e-01  -2.0286715999815497e-01  -1.7476338009529349e-01  -1.4742853086559776e-01  -1.2088206395579416e-01  -9.5172543219922121e-02  -7.0395001905993418e-02  -4.6678705660747416e-02  -2.5717611238676052e-02  -6.8029679157695583e-03  1.1133869174586366e-02  2.8773776499958423e-02  4.7485646080130450e-02  6.8146280453420749e-02  9.0701198603899386e-02  1.1544682635805488e-01  1.4246448591795940e-01  1.7169418914180537e-01  2.0299701009941917e-01  2.3615498288214234e-01  2.7090766091917973e-01  3.0699581593919978e-01  3.4418773201210845e-01  3.8228822820000002e-01  4.2113772392989074e-01  4.6060725805241143e-01  5.0059267648939110e-01  5.4100934766990227e-01  5.8178780751442272e-01  6.2287032730133696e-01  6.6420826037649072e-01  7.0576000171778230e-01  7.4748941366988852e-01  7.8936460025885569e-01  8.3135693971233970e-01  8.7344030682668672e-01  9.1559043347497937e-01  9.5778436765667829e-01  1.0000000000000000e+00  -2.0000000000000000e+00  -1.7524422129393395e+00  -1.5620518134344505e+00  -1.4090969205846635e+00  -1.2821766827106009e+00  -1.1741966771752552e+00  -1.0804859595620502e+00  -9.9782964674860586e-01  -9.2393439502119112e-01  -8.5711537670130855e-01  -7.9610402293758864e-01  -7.3992514662068853e-01  -6.8781571351037107e-01  -6.3916956938395564e-01  -5.9349887743620944e-01  -5.5040662486387126e-01  -5.0956665072959217e-01  -4.7070890373373198e-01  -4.3360841561617980e-01  -3.9807696977711343e-01  -3.6395676685489448e-01  -3.3111560508049070e-01  -2.9944324405364159e-01  -2.6884873482375038e-01  -2.3925860182254588e-01  -2.1061587751227567e-01  -1.8288013041630186e-01  -1.5602876188608383e-01  -1.3005992760342749e-01  -1.0499766992606349e-01  -8.0901306054197999e-02  -5.7886212689902718e-02  -3.6175677137138887e-02  -1.6887984082016531e-02  2.2986783826407626e-04  1.6716074109703490e-02  3.3445810844605531e-02  5.1043529119913673e-02  7.0298639342885716e-02  9.1293877327401629e-02  1.1408379824097194e-01  1.3878343574647664e-01  1.6543855329594750e-01  1.9401301993665226e-01  2.2440507607025778e-01  2.5645888648621168e-01  2.8998607390980147e-01  3.2479035344350948e-01  3.6068579405139956e-01  3.9750641190599556e-01  4.3510912122446505e-01  4.7337284908252564e-01  5.1219593016219001e-01  5.5149302539143208e-01  5.9119217479598996e-01  6.3123222412489188e-01  6.7156067668801989e-01  7.1213193905801053e-01  7.5290590052303230e-01  7.9384678233255446e-01  8.3492219888413399e-01  8.7610238194838419e-01  9.1735952774570362e-01  9.5866723402837450e-01  1.0000000000000000e+00  -2.0000000000000000e+00  -1.7261715313639447e+00  -1.5211499085132505e+00  -1.3595874617903141e+00  -1.2274703932283360e+00  -1.1163574494431323e+00  -1.0208279910879410e+00  -9.3722427199530012e-01  -8.6297876565027221e-01  -7.9623038502452270e-01  -7.3559375519625092e-01  -6.8001436280444383e-01  -6.2867424877375755e-01  -5.8092867718490115e-01  -5.3626246103952291e-01  -4.9425914736433246e-01  -4.5457884549566485e-01  -4.1694200943374582e-01  -3.8111741770837132e-01  -3.4691318062859350e-01  -3.1416998408135177e-01  -2.8275603161200347e-01  -2.5256332119639857e-01  -2.2350502434441788e-01  -1.9551385940866570e-01  -1.6854152542044576e-01  -1.4255956731163094e-01  -1.1756250818839520e-01  -9.3574607296093973e-02  -7.0662794121319136e-02  -4.8962263949646583e-02  -2.8784539776606530e-02  -1.0825983354842094e-02  5.2430397295410184e-03  2.0513005973333394e-02  3.6308732351080258e-02  5.3380087259279882e-02  7.1655889792205024e-02  9.1371504844097146e-02  1.1264679127232816e-01  1.3555668128611012e-01  1.6016456509093230e-01  1.8649327158270168e-01  2.1451426123859854e-01  2.4415138775874812e-01  2.7528941308264498e-01  3.0778739479030498e-01  3.4149372987363741e-01  3.7625867884398462e-01  4.1194250414811767e-01  4.4841949997944819e-01  4.8557908689103596e-01  5.2332516968541098e-01  5.6157464893764619e-01  6.0025564215321314e-01  6.3930571771422129e-01  6.7867028319268619e-01  7.1830117730320786e-01  7.5815546703167636e-01  7.9819442966419596e-01  8.3838269154325751e-01  8.7868749433701243e-01  9.1907806153107685e-01  9.5952504071111655e-01  1.0000000000000000e+00  -2.0000000000000000e+00  -1.7015688966639244e+00  -1.4835967838290547e+00  -1.3147770762988753e+00  -1.1784854887998639e+00  -1.0649966999579634e+00  -9.6820191998983307e-01  -8.8404962775549456e-01  -8.0973511496728068e-01  -7.4324850499506367e-01  -6.8310801371754493e-01  -6.2819504711437812e-01  -5.7764822480736444e-01  -5.3079300265279949e-01  -4.8709361099336407e-01  -4.4611943896848644e-01  -4.0752104148764628e-01  -3.7101272524772028e-01  -3.3635974585862322e-01  -3.0336881934349980e-01  -2.7188108381155685e-01  -2.4176693576621791e-01  -2.1292236602236558e-01  -1.8526656861752222e-01  -1.5874073349898238e-01  -1.3330816468260387e-01  -1.0895646445495061e-01  -8.5703928433628798e-02  -6.3614890599725457e-02  -4.2831298905389628e-02  -2.3739584334659367e-02  -6.7589577997102610e-03  8.5812229457787638e-03  2.3258033781656542e-02  3.8349807595017542e-02  5.4625762062004243e-02  7.2109916049228742e-02  9.0828437945529431e-02  1.1088469896896966e-01  1.3236510163170376e-01  1.5533157054020805e-01  1.7982487174844083e-01  2.0585570670532835e-01  2.3339936567629213e-01  2.6239680064349119e-01  2.9275998329531522e-01  3.2438036229513606e-01  3.5713849241675122e-01  3.9091268730278389e-01  4.2558542586304271e-01  4.6104728765417402e-01  4.9719882881675959e-01  5.3395101275077217e-01  5.7122475852052867e-01  6.0895002716499513e-01  6.4706472138609461e-01  6.8551356106529615e-01  7.2424701993045881e-01  7.6322036063626908e-01  8.0239277774929563e-01  8.4172664328768776e-01  8.8118684232533151e-01  9.2074018333047480e-01  9.6035486728501518e-01  1.0000000000000000e+00  -2.0000000000000000e+00  -1.6785443843237515e+00  -1.4490770121497334e+00  -1.2741063961799020e+00  -1.1344427581325147e+00  -1.0191505455771386e+00  -9.2149391572422990e-01  -8.3707257971715610e-01  -7.6287689549887083e-01  -6.9677127081541790e-01  -6.3719415633790166e-01  -5.8297502406629786e-01  -5.3321805211661255e-01  -4.8722561545342186e-01  -4.4444646990110748e-01  -4.0443977972243844e-01  -3.6684961982244202e-01  -3.3138659608783505e-01  -2.9781443342757391e-01  -2.6594012972880765e-01  -2.3560675745402626e-01  -2.0668832366781678e-01  -1.7908633930605844e-01  -1.5272793591124578e-01  -1.2756552796046305e-01  -1.0357826826172509e-01  -8.0776546884960249e-02  -5.9214905770997465e-02  -3.9026305011096302e-02  -2.0635797040469653e-02  -4.3367624098159824e-03  1.0457533579952402e-02  2.4712856054279871e-02  3.9356226224334025e-02  5.5002428563076008e-02  7.1734592252690424e-02  8.9605376930101441e-02  1.0866324697171427e-01  1.2897375145454829e-01  1.5059734574530934e-01  1.7357962749457745e-01  1.9794764465729467e-01  2.2370531781387890e-01  2.5083069411775033e-01  2.7927646584360938e-01  3.0897335715998875e-01  3.3983557867817299e-01  3.7176719019544657e-01  4.0466815208735707e-01  4.3843922434709520e-01  4.7298539595744543e-01  5.0821792797105625e-01  5.4405529398038943e-01  5.8042334522870154e-01  6.1725498660014377e-01  6.5448957959986631e-01  6.9207221975194466e-01  7.2995298071706205e-01  7.6808617783364597e-01  8.0642967740902949e-01  8.4494426153286650e-01  8.8359304834615071e-01  9.2234096218047579e-01  9.6115424509846903e-01  1.0000000000000000e+00  -2.0000000000000000e+00  -1.6570160905286730e+00  -1.4173201347278717e+00  -1.2371120883818740e+00  -1.0947121556716355e+00  -9.7805355608601630e-01  -8.7983179319490923e-01  -7.9533826690591780e-01  -7.2138620618169191e-01  -6.5573358588670405e-01  -5.9675265853692139e-01  -5.4323066027799216e-01  -4.9424437117620201e-01  -4.4907828104264963e-01  -4.0716956392691755e-01  -3.6807012366671976e-01  -3.3141985507924726e-01  -2.9692749010830288e-01  -2.6435672232574736e-01  -2.3351612245111922e-01  -2.0425189060494814e-01  -1.7644286886984498e-01  -1.4999754971118776e-01  -1.2485312652040877e-01  -1.0097696339022283e-01  -7.8371213189082453e-02  -5.7082760475384235e-02  -3.7229796191021590e-02  -1.9209448348823516e-02  -3.3222445422184527e-03  1.1076000886823733e-02  2.4990018247671834e-02  3.9284267193109547e-02  5.4451586498323698e-02  7.0569088180262016e-02  8.7704801455579837e-02  1.0591375244677244e-01  1.2524542155667800e-01  1.4574971413219998e-01  1.6747090240040777e-01  1.9044194903549769e-01  2.1468076157228178e-01  2.4018722577514182e-01  2.6694162713722086e-01  2.9490501145320785e-01  3.2402140082285746e-01  3.5422140506212052e-01  3.8542653759950496e-01  4.1755350650410267e-01  4.5051792348053599e-01  4.8423714385745587e-01  5.1863219312963105e-01  5.5362888997102766e-01  5.8915834181374416e-01  6.2515699440701222e-01  6.6156639066128231e-01  6.9833275762555447e-01  7.3540650535219909e-01  7.7274169257222303e-01  8.1029549252030952e-01  8.4802767708859794e-01  8.8590012734592871e-01  9.2387637194680883e-01  9.6192115092838493e-01  1.0000000000000000e+00  -2.0000000000000000e+00  -1.6369085428174102e+00  -1.3880919945190964e+00  -1.2034060506084110e+00  -1.0587775710291063e+00  -9.4108885205441339e-01  -8.4252132980765737e-01  -7.5809406019962533e-01  -6.8446700129706661e-01  -6.1930779517576973e-01  -5.6093357615449191e-01  -5.0809711904908350e-01  -4.5985336287462586e-01  -4.1547295539140017e-01  -3.7438448330475466e-01  -3.3613485118885039e-01  -3.0036152236991054e-01  -2.6677275256768601e-01  -2.3513337805702375e-01  -2.0525460385582620e-01  -1.7698681768703708e-01  -1.5021488771122701e-01  -1.2485582571847328e-01  -1.0085930884699980e-01  -7.8212655429907060e-02  -5.6953672003316927e-02  -3.7197116754347670e-02  -1.9270263755066363e-02  -3.5508492710086630e-03  1.0599228355915350e-02  2.4228824433108424e-02  3.8213614230828759e-02  5.2982607972162796e-02  6.8596764395589205e-02  8.5117536204068547e-02  1.0260177294259448e-01  1.2109940984473050e-01  1.4065497267602528e-01  1.6130878111716587e-01  1.8309460068862399e-01  2.0603650467472376e-01  2.3014622682119285e-01  2.5542119657718576e-01  2.8184357720278358e-01  3.0938055200914377e-01  3.3798582961611279e-01  3.6760210314794645e-01  3.9816404863634985e-01  4.2960141284901265e-01  4.6184181921349016e-01  4.9481306286221116e-01  5.2844481071898386e-01  5.6266973096034589e-01  5.9742413764823543e-01  6.3264825855287876e-01  6.6828623101269569e-01  7.0428591473679203e-01  7.4059859049395671e-01  7.7717859458273741e-01  8.1398292301138742e-01  8.5097082695528692e-01  8.8810341200215759e-01  9.2534324733244611e-01  9.6265398666826174e-01  1.0000000000000000e+00  -2.0000000000000000e+00  -1.6181517748833329e+00  -1.3611883565579856e+00  -1.1726601246883328e+00  -1.0262114523485801e+00  -9.0775286908211406e-01  -8.0900207449985040e-01  -7.2473756780297205e-01  -6.5148647806569637e-01  -5.8683957674086429e-01  -5.2906795996156830e-01  -4.7689620441355168e-01  -4.2936181924773276e-01  -3.8572477945989808e-01  -3.4540740835881539e-01  -3.0795335590572803e-01  -2.7299900567034985e-01  -2.4025323611407273e-01  -2.0948299118655148e-01  -1.8050306045942985e-01  -1.5316909607639931e-01  -1.2737337828471146e-01  -1.0304337858012769e-01  -8.0144224396168334e-02  -5.8689279412959323e-02  -3.8773372903642370e-02  -2.0686845426606058e-02  -4.9203450736875921e-03  9.1278324573418664e-03  2.2538373567345706e-02  3.6236210360906809e-02 