<?xml version="1.0"?>
<VTKFile type="UnstructuredGrid"  version="0.1"  >
<UnstructuredGrid>
<Piece  NumberOfPoints="441" NumberOfCells="800">
<Points>
<DataArray  type="Float64"  NumberOfComponents="3"  format="ascii">0 0 0  0.05 0 0  0.1 0 0  0.15 0 0  0.2 0 0  0.25 0 0  0.3 0 0  0.35 0 0  0.4 0 0  0.45 0 0  0.5 0 0  0.55 0 0  0.6 0 0  0.65 0 0  0.7 0 0  0.75 0 0  0.8 0 0  0.85 0 0  0.9 0 0  0.95 0 0  1 0 0  0 0.05 0  0.05 0.05 0  0.1 0.05 0  0.15 0.05 0  0.2 0.05 0  0.25 0.05 0  0.3 0.05 0  0.35 0.05 0  0.4 0.05 0  0.45 0.05 0  0.5 0.05 0  0.55 0.05 0  0.6 0.05 0  0.65 0.05 0  0.7 0.05 0  0.75 0.05 0  0.8 0.05 0  0.85 0.05 0  0.9 0.05 0  0.95 0.05 0  1 0.05 0  0 0.1 0  0.05 0.1 0  0.1 0.1 0  0.15 0.1 0  0.2 0.1 0  0.25 0.1 0  0.3 0.1 0  0.35 0.1 0  0.4 0.1 0  0.45 0.1 0  0.5 0.1 0  0.55 0.1 0  0.6 0.1 0  0.65 0.1 0  0.7 0.1 0  0.75 0.1 0  0.8 0.1 0  0.85 0.1 0  0.9 0.1 0  0.95 0.1 0  1 0.1 0  0 0.15 0  0.05 0.15 0  0.1 0.15 0  0.15 0.15 0  0.2 0.15 0  0.25 0.15 0  0.3 0.15 0  0.35 0.15 0  0.4 0.15 0  0.45 0.15 0  0.5 0.15 0  0.55 0.15 0  0.6 0.15 0  0.65 0.15 0  0.7 0.15 0  0.75 0.15 0  0.8 0.15 0  0.85 0.15 0  0.9 0.15 0  0.95 0.15 0  1 0.15 0  0 0.2 0  0.05 0.2 0  0.1 0.2 0  0.15 0.2 0  0.2 0.2 0  0.25 0.2 0  0.3 0.2 0  0.35 0.2 0  0.4 0.2 0  0.45 0.2 0  0.5 0.2 0  0.55 0.2 0  0.6 0.2 0  0.65 0.2 0  0.7 0.2 0  0.75 0.2 0  0.8 0.2 0  0.85 0.2 0  0.9 0.2 0  0.95 0.2 0  1 0.2 0  0 0.25 0  0.05 0.25 0  0.1 0.25 0  0.15 0.25 0  0.2 0.25 0  0.25 0.25 0  0.3 0.25 0  0.35 0.25 0  0.4 0.25 0  0.45 0.25 0  0.5 0.25 0  0.55 0.25 0  0.6 0.25 0  0.65 0.25 0  0.7 0.25 0  0.75 0.25 0  0.8 0.25 0  0.85 0.25 0  0.9 0.25 0  0.95 0.25 0  1 0.25 0  0 0.3 0  0.05 0.3 0  0.1 0.3 0  0.15 0.3 0  0.2 0.3 0  0.25 0.3 0  0.3 0.3 0  0.35 0.3 0  0.4 0.3 0  0.45 0.3 0  0.5 0.3 0  0.55 0.3 0  0.6 0.3 0  0.65 0.3 0  0.7 0.3 0  0.75 0.3 0  0.8 0.3 0  0.85 0.3 0  0.9 0.3 0  0.95 0.3 0  1 0.3 0  0 0.35 0  0.05 0.35 0  0.1 0.35 0  0.15 0.35 0  0.2 0.35 0  0.25 0.35 0  0.3 0.35 0  0.35 0.35 0  0.4 0.35 0  0.45 0.35 0  0.5 0.35 0  0.55 0.35 0  0.6 0.35 0  0.65 0.35 0  0.7 0.35 0  0.75 0.35 0  0.8 0.35 0  0.85 0.35 0  0.9 0.35 0  0.95 0.35 0  1 0.35 0  0 0.4 0  0.05 0.4 0  0.1 0.4 0  0.15 0.4 0  0.2 0.4 0  0.25 0.4 0  0.3 0.4 0  0.35 0.4 0  0.4 0.4 0  0.45 0.4 0  0.5 0.4 0  0.55 0.4 0  0.6 0.4 0  0.65 0.4 0  0.7 0.4 0  0.75 0.4 0  0.8 0.4 0  0.85 0.4 0  0.9 0.4 0  0.95 0.4 0  1 0.4 0  0 0.45 0  0.05 0.45 0  0.1 0.45 0  0.15 0.45 0  0.2 0.45 0  0.25 0.45 0  0.3 0.45 0  0.35 0.45 0  0.4 0.45 0  0.45 0.45 0  0.5 0.45 0  0.55 0.45 0  0.6 0.45 0  0.65 0.45 0  0.7 0.45 0  0.75 0.45 0  0.8 0.45 0  0.85 0.45 0  0.9 0.45 0  0.95 0.45 0  1 0.45 0  0 0.5 0  0.05 0.5 0  0.1 0.5 0  0.15 0.5 0  0.2 0.5 0  0.25 0.5 0  0.3 0.5 0  0.35 0.5 0  0.4 0.5 0  0.45 0.5 0  0.5 0.5 0  0.55 0.5 0  0.6 0.5 0  0.65 0.5 0  0.7 0.5 0  0.75 0.5 0  0.8 0.5 0  0.85 0.5 0  0.9 0.5 0  0.95 0.5 0  1 0.5 0  0 0.55 0  0.05 0.55 0  0.1 0.55 0  0.15 0.55 0  0.2 0.55 0  0.25 0.55 0  0.3 0.55 0  0.35 0.55 0  0.4 0.55 0  0.45 0.55 0  0.5 0.55 0  0.55 0.55 0  0.6 0.55 0  0.65 0.55 0  0.7 0.55 0  0.75 0.55 0  0.8 0.55 0  0.85 0.55 0  0.9 0.55 0  0.95 0.55 0  1 0.55 0  0 0.6 0  0.05 0.6 0  0.1 0.6 0  0.15 0.6 0  0.2 0.6 0  0.25 0.6 0  0.3 0.6 0  0.35 0.6 0  0.4 0.6 0  0.45 0.6 0  0.5 0.6 0  0.55 0.6 0  0.6 0.6 0  0.65 0.6 0  0.7 0.6 0  0.75 0.6 0  0.8 0.6 0  0.85 0.6 0  0.9 0.6 0  0.95 0.6 0  1 0.6 0  0 0.65 0  0.05 0.65 0  0.1 0.65 0  0.15 0.65 0  0.2 0.65 0  0.25 0.65 0  0.3 0.65 0  0.35 0.65 0  0.4 0.65 0  0.45 0.65 0  0.5 0.65 0  0.55 0.65 0  0.6 0.65 0  0.65 0.65 0  0.7 0.65 0  0.75 0.65 0  0.8 0.65 0  0.85 0.65 0  0.9 0.65 0  0.95 0.65 0  1 0.65 0  0 0.7 0  0.05 0.7 0  0.1 0.7 0  0.15 0.7 0  0.2 0.7 0  0.25 0.7 0  0.3 0.7 0  0.35 0.7 0  0.4 0.7 0  0.45 0.7 0  0.5 0.7 0  0.55 0.7 0  0.6 0.7 0  0.65 0.7 0  0.7 0.7 0  0.75 0.7 0  0.8 0.7 0  0.85 0.7 0  0.9 0.7 0  0.95 0.7 0  1 0.7 0  0 0.75 0  0.05 0.75 0  0.1 0.75 0  0.15 0.75 0  0.2 0.75 0  0.25 0.75 0  0.3 0.75 0  0.35 0.75 0  0.4 0.75 0  0.45 0.75 0  0.5 0.75 0  0.55 0.75 0  0.6 0.75 0  0.65 0.75 0  0.7 0.75 0  0.75 0.75 0  0.8 0.75 0  0.85 0.75 0  0.9 0.75 0  0.95 0.75 0  1 0.75 0  0 0.8 0  0.05 0.8 0  0.1 0.8 0  0.15 0.8 0  0.2 0.8 0  0.25 0.8 0  0.3 0.8 0  0.35 0.8 0  0.4 0.8 0  0.45 0.8 0  0.5 0.8 0  0.55 0.8 0  0.6 0.8 0  0.65 0.8 0  0.7 0.8 0  0.75 0.8 0  0.8 0.8 0  0.85 0.8 0  0.9 0.8 0  0.95 0.8 0  1 0.8 0  0 0.85 0  0.05 0.85 0  0.1 0.85 0  0.15 0.85 0  0.2 0.85 0  0.25 0.85 0  0.3 0.85 0  0.35 0.85 0  0.4 0.85 0  0.45 0.85 0  0.5 0.85 0  0.55 0.85 0  0.6 0.85 0  0.65 0.85 0  0.7 0.85 0  0.75 0.85 0  0.8 0.85 0  0.85 0.85 0  0.9 0.85 0  0.95 0.85 0  1 0.85 0  0 0.9 0  0.05 0.9 0  0.1 0.9 0  0.15 0.9 0  0.2 0.9 0  0.25 0.9 0  0.3 0.9 0  0.35 0.9 0  0.4 0.9 0  0.45 0.9 0  0.5 0.9 0  0.55 0.9 0  0.6 0.9 0  0.65 0.9 0  0.7 0.9 0  0.75 0.9 0  0.8 0.9 0  0.85 0.9 0  0.9 0.9 0  0.95 0.9 0  1 0.9 0  0 0.95 0  0.05 0.95 0  0.1 0.95 0  0.15 0.95 0  0.2 0.95 0  0.25 0.95 0  0.3 0.95 0  0.35 0.95 0  0.4 0.95 0  0.45 0.95 0  0.5 0.95 0  0.55 0.95 0  0.6 0.95 0  0.65 0.95 0  0.7 0.95 0  0.75 0.95 0  0.8 0.95 0  0.85 0.95 0  0.9 0.95 0  0.95 0.95 0  1 0.95 0  0 1 0  0.05 1 0  0.1 1 0  0.15 1 0  0.2 1 0  0.25 1 0  0.3 1 0  0.35 1 0  0.4 1 0  0.45 1 0  0.5 1 0  0.55 1 0  0.6 1 0  0.65 1 0  0.7 1 0  0.75 1 0  0.8 1 0  0.85 1 0  0.9 1 0  0.95 1 0  1 1 0  </DataArray>
</Points>
<Cells>
[...]
<PointData  Scalars="f_6"> 
<DataArray  type="Float64"  Name="f_6"  format="ascii">-2.0000000000000000e+00  -1.8499999999999999e+00  -1.7000000000000000e+00  -1.5500000000000000e+00  -1.4000000000000001e+00  -1.2500000000000000e+00  -1.0999999999999999e+00  -9.5000000000000007e-01  -7.9999999999999993e-01  -6.5000000000000013e-01  -5.0000000000000000e-01  -3.4999999999999981e-01  -2.0000000000000007e-01  -4.9999999999999933e-02  9.9999999999999867e-02  2.5000000000000000e-01  4.0000000000000013e-01  5.4999999999999993e-01  7.0000000000000007e-01  8.4999999999999987e-01  1.0000000000000000e+00  -2.0000000000000000e+00  -2.0610724740317804e-01  4.3831657750834883e-02  1.1039402570454841e-01  1.3355780537776998e-01  1.3669369220685537e-01  1.2440655973932870e-01  9.9459222042845324e-02  6.1463488199927016e-02  -5.2908367331828791e-03  -4.9627853150762000e-02  -2.5044309490840501e-02  4.0366405520807794e-02  1.2249466197702404e-01  2.2080605170912890e-01  3.3533160565757808e-01  4.6171488298950220e-01  5.9341167281511364e-01  7.2780105824510122e-01  8.6359383890658548e-01  1.0000000000000000e+00  -2.0000000000000000e+00  8.8105820105151264e-02  2.2529314217572713e-01  2.4148643981516107e-01  2.3987286582679898e-01  2.2989188153042731e-01  2.0821139641891695e-01  1.7687394593976358e-01  1.5043664823466019e-01  1.2714633525573146e-01  1.1125344865528339e-01  1.1875289532818416e-01  1.5945648839099530e-01  2.2581467144521450e-01  3.1013395076478312e-01  4.0880548793168142e-01  5.1811625348531665e-01  6.3413075002585084e-01  7.5419872125870557e-01  8.7657429738124115e-01  1.0000000000000000e+00  -2.0000000000000000e+00  1.7491682219102508e-01  2.5508599985667868e-01  2.5975893486275398e-01  2.5592516793353942e-01  2.4801029202563685e-01  2.3705592974734296e-01  2.2182145702209347e-01  2.0523531335027093e-01  1.9507408810865423e-01  1.9592400590996031e-01  2.1385305823161402e-01  2.5289198126977486e-01  3.1117358464805561e-01  3.8510959197310796e-01  4.7164014181904784e-01  5.6781389299423213e-01  6.7079635254426817e-01  7.7828877938262930e-01  8.8850462935967400e-01  1.0000000000000000e+00  -2.0000000000000000e+00  2.1411304621563787e-01  2.6415573109107571e-01  2.6794890056064763e-01  2.6706800410899562e-01  2.6378222798025769e-01  2.5871163902239086e-01  2.5331113667284444e-01  2.4978706276073248e-01  2.5199069791865425e-01  2.6351542864428967e-01  2.8784335041853665e-01  3.2708479380843480e-01  3.8087809390412491e-01  4.4749069066054559e-01  5.2483159437716997e-01  6.1070282412829568e-01  7.0295198777436096e-01  7.9965541436786924e-01  8.9915544067482511e-01  1.0000000000000000e+00  -2.0000000000000000e+00  2.3584434373261420e-01  2.6897981636810048e-01  2.7463268451401712e-01  2.7700577356869616e-01  2.7846008474320805e-01  2.8011360626103576e-01  2.8292438788616098e-01  2.8861110310116034e-01  2.9958621216094061e-01  3.1830366033000734e-01  3.4692012098980785e-01  3.8672574964130302e-01  4.3776330649946382e-01  4.9914348238778000e-01  5.6949272090079062e-01  6.4721382136741945e-01  7.3065336005701076e-01  8.1822544963966148e-01  9.0846171897175831e-01  1.0000000000000000e+00  -2.0000000000000000e+00  2.4834167922929598e-01  2.7211206315724462e-01  2.8063580287543827e-01  2.8653301201990250e-01  2.9293873116284269e-01  3.0035831339238322e-01  3.0966170550960331e-01  3.2214674959680689e-01  3.3943938729394074e-01  3.6319287952499163e-01  3.9480772356938465e-01  4.3513477726750566e-01  4.8430590006464735e-01  5.4182721149031998e-01  6.0678198547079343e-01  6.7800638038358152e-01  7.5422218144660158e-01  8.3413130516200784e-01  9.1646598557254699e-01  1.0000000000000000e+00  -2.0000000000000000e+00  2.5287370233171058e-01  2.7443112984225254e-01  2.8574943692206262e-01  2.9555174047263288e-01  3.0640351449587705e-01  3.1871921063605130e-01  3.3321737116306227e-01  3.5087480248252340e-01  3.7283170789302378e-01  4.0022074690663384e-01  4.3398311649523380e-01  4.7469973579468766e-01  5.2249830500130012e-01  5.7707747803805942e-01  6.3780162910848170e-01  7.0380753324951184e-01  7.7409768018380631e-01  8.4761160398922164e-01  9.2327091815642237e-01  1.0000000000000000e+00  -2.0000000000000000e+00  2.5152516359739874e-01  2.7608149357105732e-01  2.8977986312340931e-01  3.0352099845268954e-01  3.1840437571198116e-01  3.3489764349288303e-01  3.5361376602407124e-01  3.7530338127720081e-01  4.0079189488899719e-01  4.3087528371328648e-01  4.6620425971022911e-01  5.0718274441471145e-01  5.5391010610780622e-01  6.0618276655213588e-01  6.6353951967556235e-01  7.2532444332217805e-01  7.9074940204989030e-01  8.5894651245465004e-01  9.2900608306392174e-01  1.0000000000000000e+00  -2.0000000000000000e+00  2.4601638098072184e-01  2.7663389047133347e-01  2.9308250645133405e-01  3.1034801450273480e-01  3.2879534640647512e-01  3.4885322159942805e-01  3.7103666816313902e-01  3.9593306171321080e-01  4.2415720667247808e-01  4.5628423334728563e-01  4.9277589421768497e-01  5.3391687604612259e-01  5.7977660846307710e-01  6.3020396238711540e-01  6.8484923971945333e-01  7.4320131831374769e-01  8.0462897223892638e-01  8.6841896071556668e-01  9.3380690164461511e-01  1.0000000000000000e+00  -2.0000000000000000e+00  2.3887452474303059e-01  2.7603028453695300e-01  2.9556825770785838e-01  3.1599320670044057e-01  3.3757577381175663e-01  3.6068322833521510e-01  3.8574662331584597e-01  4.1323499074002512e-01  4.4361963674041849e-01  4.7732854878569309e-01  5.1469820776710273e-01  5.5593225708901739e-01  6.0107548931126442e-01  6.5000723481379619e-01  7.0245215850138820e-01  7.5800261797443347e-01  8.1614620787650105e-01  8.7629345652407553e-01  9.3780256279897178e-01  1.0000000000000000e+00  -2.0000000000000000e+00  2.3112359538593835e-01  2.7460286846436532e-01  2.9716703314270593e-01  3.2048078077941256e-01  3.4483131380489596e-01  3.7055729461382964e-01  3.9803160602500515e-01  4.2764064119062528e-01  4.5975780076347805e-01  4.9471211728796549e-01  5.3275613097601537e-01  5.7403845523157981e-01  6.1858585687916656e-01  6.6629732905541705e-01  7.1694954149787060e-01  7.7021078720609737e-01  8.2565978476857094e-01  8.8280609470526306e-01  9.4110989302719650e-01  1.0000000000000000e+00  -2.0000000000000000e+00  2.2336502338977401e-01  2.7265259546491916e-01  2.9801622561918750e-01  3.2393156946960816e-01  3.5071140601458495e-01  3.7868303029020212e-01  4.0818186497971992e-01  4.3953816723399280e-01  4.7305880783490301e-01  5.0900598862667534e-01  5.4757574361741357e-01  5.8887957598212015e-01  6.3293215391840496e-01  6.7964668303083553e-01  7.2883789122857923e-01  7.8023120458351436e-01  8.3347604928642294e-01  8.8816124450120948e-01  9.4383091460455193e-01  1.0000000000000000e+00  -2.0000000000000000e+00  2.1602370641793034e-01  2.7045585010193596e-01  2.9831370439951699e-01  3.2651786546524764e-01  3.5539971049363384e-01  3.8528155555267407e-01  4.1647465636967967e-01  4.4927135493072301e-01  4.8393327471546616e-01  5.2067728576641992e-01  5.5966127888484341e-01  6.0097195116108226e-01  6.4461649978149727e-01  6.9051935792094188e-01  7.3852413580209675e-01  7.8840009061295779e-01  8.3985196329239808e-01  8.9253191940860011e-01  9.4605252088980185e-01  1.0000000000000000e+00  -2.0000000000000000e+00  2.0942306082431339e-01  2.6826000160667779e-01  2.9826487641169680e-01  3.2842647749823167e-01  3.5908801494202858e-01  3.9056882505718066e-01  4.2316385001560147e-01  4.5713932140375357e-01  4.9272565032981880e-01  5.3010860083869449e-01  5.6942013499445809e-01  6.1073044999586834e-01  6.5404253612556051e-01  6.9929011306933819e-01  7.4633920344590765e-01  7.9499305877382254e-01  8.4499979386161062e-01  8.9606194895099134e-01  9.4784724954605570e-01  1.0000000000000000e+00  -2.0000000000000000e+00  2.0382458723734256e-01  2.6627933824465461e-01  2.9805932214236069e-01  3.2983515317395373e-01  3.6195704671906814e-01  3.9474187971841851e-01  4.2847259723179204e-01  4.6339643033887118e-01  4.9972140436136092e-01  5.3761133226408142e-01  5.7718021025842625e-01  6.1848717770237194e-01  6.6153308165553903e-01  7.0625935478494306e-01  7.5254950613837368e-01  8.0023314717481420e-01  8.4909220442923117e-01  8.9886883298769937e-01  9.4927452834343029e-01  1.0000000000000000e+00  -2.0000000000000000e+00  1.9944059053681712e-01  2.6468857652889022e-01  2.9785792073913764e-01  3.3089776633615436e-01  3.6416313904187170e-01  3.9796904986563331e-01  4.3258822885427711e-01  4.6825239835857790e-01  5.0515220451267140e-01  5.4343511359784413e-01  5.8320219607279378e-01  6.2450496889965446e-01  6.6734325800928063e-01  7.1166471827652156e-01  7.5736631914782970e-01  8.0429781935782907e-01  8.5226704369280049e-01  9.0104665022714470e-01  9.5038203083996597e-01  1.0000000000000000e+00  -2.0000000000000000e+00  1.9635598759165246e-01  2.6360977477204883e-01  2.9778601794914533e-01  3.3173485238965444e-01  3.6582869324663086e-01  4.0038295184796591e-01  4.3565886996110492e-01  4.7187272972849209e-01  5.0919990173290119e-01  5.4777472154183027e-01  5.8768849153525060e-01  6.2898724381417137e-01  6.7167026320540812e-01  7.1568994116403317e-01  7.6095323281859362e-01  8.0732476741587256e-01  8.5463150075699701e-01  9.0266869338811295e-01  9.5120694478928958e-01  1.0000000000000000e+00  -2.0000000000000000e+00  1.9417940749357593e-01  2.6312481806200694e-01  2.9794152389574047e-01  3.3242693202668722e-01  3.6703382970703152e-01  4.0207519431849459e-01  4.3779156941368469e-01  4.7437974886138440e-01  5.1199995114861119e-01  5.5077537930132558e-01  5.9078980471220688e-01  6.3208525161637275e-01  6.7466060983414677e-01  7.1847155035560994e-01  7.6343190354663903e-01  8.0941651673007120e-01  8.5626549853120226e-01  9.0378967777902119e-01  9.5177705492907927e-01  1.0000000000000000e+00  -2.0000000000000000e+00  1.9144733356392918e-01  2.6354220862100858e-01  2.9842832754512266e-01  3.3299752211432260e-01  3.6780449923631342e-01  4.0309242630529601e-01  4.3905246451375496e-01  4.7585474515474974e-01  5.1364477469883318e-01  5.5253703980265412e-01  5.9261009639587903e-01  6.3390334810496662e-01  6.7641537415919684e-01  7.2010374687762102e-01  7.6488631428228093e-01  8.1064389742657117e-01  8.5722429885872009e-01  9.0444746426769029e-01  9.5211159714800664e-01  1.0000000000000000e+00  -2.0000000000000000e+00  1.9070733305876639e-01  2.6674123745826334e-01  2.9923205554941890e-01  3.3333032964916692e-01  3.6809421881860371e-01  4.0343754715262131e-01  4.3947111718128945e-01  4.7634199254502674e-01  5.1418736268931786e-01  5.5311790881457867e-01  5.9321019296368882e-01  6.3450267024841867e-01  6.7699379182005270e-01  7.2064174871339692e-01  7.6536570927829295e-01  8.1104845983521312e-01  8.5754033520941708e-01  9.0466428328501358e-01  9.5222186939525699e-01  1.0000000000000000e+00  </DataArray> 
</PointData> 
</Piece>
</UnstructuredGrid>
</VTKFile>