<?xml version="1.0"?>
<VTKFile type="UnstructuredGrid"  version="0.1"  >
<UnstructuredGrid>
<Piece  NumberOfPoints="4225" NumberOfCells="8192">
<Points>
<DataArray  type="Float64"  NumberOfComponents="3"  format="ascii">0 0 0  0.015625 0 0  0.03125 0 0  0.046875 0 0  0.0625 0 0  0.078125 0 0  0.09375 0 0  0.109375 0 0  0.125 0 0  0.140625 0 0  0.15625 0 0  0.171875 0 0  0.1875 0 0  0.203125 0 0  0.21875 0 0  0.234375 0 0  0.25 0 0  0.265625 0 0  0.28125 0 0  0.296875 0 0  0.3125 0 0  0.328125 0 0  0.34375 0 0  0.359375 0 0  0.375 0 0  0.390625 0 0  0.40625 0 0  0.421875 0 0  0.4375 0 0  0.453125 0 0  0.46875 0 0  0.484375 0 0  0.5 0 0  0.515625 0 0  0.53125 0 0  0.546875 0 0  0.5625 0 0  0.578125 0 0  0.59375 0 0  0.609375 0 0  0.625 0 0  0.640625 0 0  0.65625 0 0  0.671875 0 0  0.6875 0 0  0.703125 0 0  0.71875 0 0  0.734375 0 0  0.75 0 0  0.765625 0 0  0.78125 0 0  0.796875 0 0  0.8125 0 0  0.828125 0 0  0.84375 0 0  0.859375 0 0  0.875 0 0  0.890625 0 0  0.90625 0 0  0.921875 0 0  0.9375 0 0  0.953125 0 0  0.96875 0 0  0.984375 0 0  1 0 0  0 0.015625 0  0.015625 0.015625 0  0.03125 0.015625 0  0.046875 0.015625 0  0.0625 0.015625 0  0.078125 0.015625 0  0.09375 0.015625 0  0.109375 0.015625 0  0.125 0.015625 0  0.140625 0.015625 0  0.15625 0.015625 0  0.171875 0.015625 0  0.1875 0.015625 0  0.203125 0.015625 0  0.21875 0.015625 0  0.234375 0.015625 0  0.25 0.015625 0  0.265625 0.015625 0  0.28125 0.015625 0  0.296875 0.015625 0  0.3125 0.015625 0  0.328125 0.015625 0  0.34375 0.015625 0  0.359375 0.015625 0  0.375 0.015625 0  0.390625 0.015625 0  0.40625 0.015625 0  0.421875 0.015625 0  0.4375 0.015625 0  0.453125 0.015625 0  0.46875 0.015625 0  0.484375 0.015625 0  0.5 0.015625 0  0.515625 0.015625 0  0.53125 0.015625 0  0.546875 0.015625 0  0.5625 0.015625 0  0.578125 0.015625 0  0.59375 0.015625 0  0.609375 0.015625 0  0.625 0.015625 0  0.640625 0.015625 0  0.65625 0.015625 0  0.671875 0.015625 0  0.6875 0.015625 0  0.703125 0.015625 0  0.71875 0.015625 0  0.734375 0.015625 0  0.75 0.015625 0  0.765625 0.015625 0  0.78125 0.015625 0  0.796875 0.015625 0  0.8125 0.015625 0  0.828125 0.015625 0  0.84375 0.015625 0  0.859375 0.015625 0  0.875 0.015625 0  0.890625 0.015625 0  0.90625 0.015625 0  0.921875 0.015625 0  0.9375 0.015625 0  0.953125 0.015625 0  0.96875 0.015625 0  0.984375 0.015625 0  1 0.015625 0  0 0.03125 0  0.015625 0.03125 0  0.03125 0.03125 0  0.046875 0.03125 0  0.0625 0.03125 0  0.078125 0.03125 0  0.09375 0.03125 0  0.109375 0.03125 0  0.125 0.03125 0  0.140625 0.03125 0  0.15625 0.03125 0  0.171875 0.03125 0  0.1875 0.03125 0  0.203125 0.03125 0  0.21875 0.03125 0  0.234375 0.03125 0  0.25 0.03125 0  0.265625 0.03125 0  0.28125 0.03125 0  0.296875 0.03125 0  0.3125 0.03125 0  0.328125 0.03125 0  0.34375 0.03125 0  0.359375 0.03125 0  0.375 0.03125 0  0.390625 0.03125 0  0.40625 0.03125 0  0.421875 0.03125 0  0.4375 0.03125 0  0.453125 0.03125 0  0.46875 0.03125 0  0.484375 0.03125 0  0.5 0.03125 0  0.515625 0.03125 0  0.53125 0.03125 0  0.546875 0.03125 0  0.5625 0.03125 0  0.578125 0.03125 0  0.59375 0.03125 0  0.609375 0.03125 0  0.625 0.03125 0  0.640625 0.03125 0  0.65625 0.03125 0  0.671875 0.03125 0  0.6875 0.03125 0  0.703125 0.03125 0  0.71875 0.03125 0  0.734375 0.03125 0  0.75 0.03125 0  0.765625 0.03125 0  0.78125 0.03125 0  0.796875 0.03125 0  0.8125 0.03125 0  0.828125 0.03125 0  0.84375 0.03125 0  0.859375 0.03125 0  0.875 0.03125 0  0.890625 0.03125 0  0.90625 0.03125 0  0.921875 0.03125 0  0.9375 0.03125 0  0.953125 0.03125 0  0.96875 0.03125 0  0.984375 0.03125 0  1 0.03125 0  0 0.046875 0  0.015625 0.046875 0  0.03125 0.046875 0  0.046875 0.046875 0  0.0625 0.046875 0  0.078125 0.046875 0  0.09375 0.046875 0  0.109375 0.046875 0  0.125 0.046875 0  0.140625 0.046875 0  0.15625 0.046875 0  0.171875 0.046875 0  0.1875 0.046875 0  0.203125 0.046875 0  0.21875 0.046875 0  0.234375 0.046875 0  0.25 0.046875 0  0.265625 0.046875 0  0.28125 0.046875 0  0.296875 0.046875 0  0.3125 0.046875 0  0.328125 0.046875 0  0.34375 0.046875 0  0.359375 0.046875 0  0.375 0.046875 0  0.390625 0.046875 0  0.40625 0.046875 0  0.421875 0.046875 0  0.4375 0.046875 0  0.453125 0.046875 0  0.46875 0.046875 0  0.484375 0.046875 0  0.5 0.046875 0  0.515625 0.046875 0  0.53125 0.046875 0  0.546875 0.046875 0  0.5625 0.046875 0  0.578125 0.046875 0  0.59375 0.046875 0  0.609375 0.046875 0  0.625 0.046875 0  0.640625 0.046875 0  0.65625 0.046875 0  0.671875 0.046875 0  0.6875 0.046875 0  0.703125 0.046875 0  0.71875 0.046875 0  0.734375 0.046875 0  0.75 0.046875 0  0.765625 0.046875 0  0.78125 0.046875 0  0.796875 0.046875 0  0.8125 0.046875 0  0.828125 0.046875 0  0.84375 0.046875 0  0.859375 0.046875 0  0.875 0.046875 0  0.890625 0.046875 0  0.90625 0.046875 0  0.921875 0.046875 0  0.9375 0.046875 0  0.953125 0.046875 0  0.96875 0.046875 0  0.984375 0.046875 0  1 0.046875 0  0 0.0625 0  0.015625 0.0625 0  0.03125 0.0625 0  0.046875 0.0625 0  0.0625 0.0625 0  0.078125 0.0625 0  0.09375 0.0625 0  0.109375 0.0625 0  0.125 0.0625 0  0.140625 0.0625 0  0.15625 0.0625 0  0.171875 0.0625 0  0.1875 0.0625 0  0.203125 0.0625 0  0.21875 0.0625 0  0.234375 0.0625 0  0.25 0.0625 0  0.265625 0.0625 0  0.28125 0.0625 0  0.296875 0.0625 0  0.3125 0.0625 0  0.328125 0.0625 0  0.34375 0.0625 0  0.359375 0.0625 0  0.375 0.0625 0  0.390625 0.0625 0  0.40625 0.0625 0  0.421875 0.0625 0  0.4375 0.0625 0  0.453125 0.0625 0  0.46875 0.0625 0  0.484375 0.0625 0  0.5 0.0625 0  0.515625 0.0625 0  0.53125 0.0625 0  0.546875 0.0625 0  0.5625 0.0625 0  0.578125 0.0625 0  0.59375 0.0625 0  0.609375 0.0625 0  0.625 0.0625 0  0.640625 0.0625 0  0.65625 0.0625 0  0.671875 0.0625 0  0.6875 0.0625 0  0.703125 0.0625 0  0.71875 0.0625 0  0.734375 0.0625 0  0.75 0.0625 0  0.765625 0.0625 0  0.78125 0.0625 0  0.796875 0.0625 0  0.8125 0.0625 0  0.828125 0.0625 0  0.84375 0.0625 0  0.859375 0.0625 0  0.875 0.0625 0  0.890625 0.0625 0  0.90625 0.0625 0  0.921875 0.0625 0  0.9375 0.0625 0  0.953125 0.0625 0  0.96875 0.0625 0  0.984375 0.0625 0  1 0.0625 0  0 0.078125 0  0.015625 0.078125 0  0.03125 0.078125 0  0.046875 0.078125 0  0.0625 0.078125 0  0.078125 0.078125 0  0.09375 0.078125 0  0.109375 0.078125 0  0.125 0.078125 0  0.140625 0.078125 0  0.15625 0.078125 0  0.171875 0.078125 0  0.1875 0.078125 0  0.203125 0.078125 0  0.21875 0.078125 0  0.234375 0.078125 0  0.25 0.078125 0  0.265625 0.078125 0  0.28125 0.078125 0  0.296875 0.078125 0  0.3125 0.078125 0  0.328125 0.078125 0  0.34375 0.078125 0  0.359375 0.078125 0  0.375 0.078125 0  0.390625 0.078125 0  0.40625 0.078125 0  0.421875 0.078125 0  0.4375 0.078125 0  0.453125 0.078125 0  0.46875 0.078125 0  0.484375 0.078125 0  0.5 0.078125 0  0.515625 0.078125 0  0.53125 0.078125 0  0.546875 0.078125 0  0.5625 0.078125 0  0.578125 0.078125 0  0.59375 0.078125 0  0.609375 0.078125 0  0.625 0.078125 0  0.640625 0.078125 0  0.65625 0.078125 0  0.671875 0.078125 0  0.6875 0.078125 0  0.703125 0.078125 0  0.71875 0.078125 0  0.734375 0.078125 0  0.75 0.078125 0  0.765625 0.078125 0  0.78125 0.078125 0  0.796875 0.078125 0  0.8125 0.078125 0  0.828125 0.078125 0  0.84375 0.078125 0  0.859375 0.078125 0  0.875 0.078125 0  0.890625 0.078125 0  0.90625 0.078125 0  0.921875 0.078125 0  0.9375 0.078125 0  0.953125 0.078125 0  0.96875 0.078125 0  0.984375 0.078125 0  1 0.078125 0  0 0.09375 0  0.015625 0.09375 0  0.03125 0.09375 0  0.046875 0.09375 0  0.0625 0.09375 0  0.078125 0.09375 0  0.09375 0.09375 0  0.109375 0.09375 0  0.125 0.09375 0  0.140625 0.09375 0  0.15625 0.09375 0  0.171875 0.09375 0  0.1875 0.09375 0  0.203125 0.09375 0  0.21875 0.09375 0  0.234375 0.09375 0  0.25 0.09375 0  0.265625 0.09375 0  0.28125 0.09375 0  0.296875 0.09375 0  0.3125 0.09375 0  0.328125 0.09375 0  0.34375 0.09375 0  0.359375 0.09375 0  0.375 0.09375 0  0.390625 0.09375 0  0.40625 0.09375 0  0.421875 0.09375 0  0.4375 0.09375 0  0.453125 0.09375 0  0.46875 0.09375 0  0.484375 0.09375 0  0.5 0.09375 0  0.515625 0.09375 0  0.53125 0.09375 0  0.546875 0.09375 0  0.5625 0.09375 0  0.578125 0.09375 0  0.59375 0.09375 0  0.609375 0.09375 0  0.625 0.09375 0  0.640625 0.09375 0  0.65625 0.09375 0  0.671875 0.09375 0  0.6875 0.09375 0  0.703125 0.09375 0  0.71875 0.09375 0  0.734375 0.09375 0  0.75 0.09375 0  0.765625 0.09375 0  0.78125 0.09375 0  0.796875 0.09375 0  0.8125 0.09375 0  0.828125 0.09375 0  0.84375 0.09375 0  0.859375 0.09375 0  0.875 0.09375 0  0.890625 0.09375 0  0.90625 0.09375 0  0.921875 0.09375 0  0.9375 0.09375 0  0.953125 0.09375 0  0.96875 0.09375 0  0.984375 0.09375 0  1 0.09375 0  0 0.109375 0  0.015625 0.109375 0  0.03125 0.109375 0  0.046875 0.109375 0  0.0625 0.109375 0  0.078125 0.109375 0  0.09375 0.109375 0  0.109375 0.109375 0  0.125 0.109375 0  0.140625 0.109375 0  0.15625 0.109375 0  0.171875 0.109375 0  0.1875 0.109375 0  0.203125 0.109375 0  0.21875 0.109375 0  0.234375 0.109375 0  0.25 0.109375 0  0.265625 0.109375 0  0.28125 0.109375 0  0.296875 0.109375 0  0.3125 0.109375 0  0.328125 0.109375 0  0.34375 0.109375 0  0.359375 0.109375 0  0.375 0.109375 0  0.390625 0.109375 0  0.40625 0.109375 0  0.421875 0.109375 0  0.4375 0.109375 0  0.453125 0.109375 0  0.46875 0.109375 0  0.484375 0.109375 0  0.5 0.109375 0  0.515625 0.109375 0  0.53125 0.109375 0  0.546875 0.109375 0  0.5625 0.109375 0  0.578125 0.109375 0  0.59375 0.109375 0  0.609375 0.109375 0  0.625 0.109375 0  0.640625 0.109375 0  0.65625 0.109375 0  0.671875 0.109375 0  0.6875 0.109375 0  0.703125 0.109375 0  0.71875 0.109375 0  0.734375 0.109375 0  0.75 0.109375 0  0.765625 0.109375 0  0.78125 0.109375 0  0.796875 0.109375 0  0.8125 0.109375 0  0.828125 0.109375 0  0.84375 0.109375 0  0.859375 0.109375 0  0.875 0.109375 0  0.890625 0.109375 0  0.90625 0.109375 0  0.921875 0.109375 0  0.9375 0.109375 0  0.953125 0.109375 0  0.96875 0.109375 0  0.984375 0.109375 0  1 0.109375 0  0 0.125 0  0.015625 0.125 0  0.03125 0.125 0  0.046875 0.125 0  0.0625 0.125 0  0.078125 0.125 0  0.09375 0.125 0  0.109375 0.125 0  0.125 0.12
[...]
<PointData  Scalars="f_6"> 
<DataArray  type="Float64"  Name="f_6"  format="ascii">-2.0000000000000000e+00  -1.9531250000000000e+00  -1.9062500000000000e+00  -1.8593750000000000e+00  -1.8125000000000000e+00  -1.7656250000000000e+00  -1.7187500000000000e+00  -1.6718750000000000e+00  -1.6250000000000000e+00  -1.5781250000000000e+00  -1.5312500000000000e+00  -1.4843750000000000e+00  -1.4375000000000000e+00  -1.3906250000000000e+00  -1.3437500000000000e+00  -1.2968750000000000e+00  -1.2500000000000000e+00  -1.2031250000000000e+00  -1.1562500000000000e+00  -1.1093750000000000e+00  -1.0625000000000000e+00  -1.0156250000000000e+00  -9.6875000000000000e-01  -9.2187500000000000e-01  -8.7500000000000000e-01  -8.2812500000000000e-01  -7.8125000000000000e-01  -7.3437500000000000e-01  -6.8750000000000000e-01  -6.4062500000000000e-01  -5.9375000000000000e-01  -5.4687500000000000e-01  -5.0000000000000000e-01  -4.5312500000000006e-01  -4.0625000000000000e-01  -3.5937500000000000e-01  -3.1250000000000000e-01  -2.6562500000000000e-01  -2.1875000000000000e-01  -1.7187500000000000e-01  -1.2500000000000000e-01  -7.8125000000000014e-02  -3.1250000000000000e-02  1.5625000000000000e-02  6.2500000000000000e-02  1.0937500000000000e-01  1.5625000000000000e-01  2.0312500000000000e-01  2.5000000000000000e-01  2.9687500000000000e-01  3.4375000000000000e-01  3.9062500000000000e-01  4.3750000000000000e-01  4.8437500000000000e-01  5.3125000000000000e-01  5.7812500000000000e-01  6.2500000000000000e-01  6.7187500000000000e-01  7.1875000000000000e-01  7.6562500000000000e-01  8.1250000000000000e-01  8.5937500000000000e-01  9.0625000000000000e-01  9.5312500000000000e-01  1.0000000000000000e+00  -2.0000000000000000e+00  -1.9132716274175066e+00  -1.8332347147284722e+00  -1.7584624450018980e+00  -1.6880327793507597e+00  -1.6212758779288476e+00  -1.5576721407315561e+00  -1.4968028793377786e+00  -1.4383226136140790e+00  -1.3819416629617647e+00  -1.3274142855761999e+00  -1.2745301211351685e+00  -1.2231077600681131e+00  -1.1729897666906655e+00  -1.1240387430407277e+00  -1.0761341642033986e+00  -1.0291698010726176e+00  -9.8305159980951573e-01  -9.3769592236376442e-01  -8.9302807667714057e-01  -8.4898108281774942e-01  -8.0549463491882900e-01  -7.6251423018633913e-01  -7.1999044673911838e-01  -6.7787836295410375e-01  -6.3613712416105728e-01  -5.9472968125995040e-01  -5.5362275501495928e-01  -5.1278712130659598e-01  -4.7219834642762126e-01  -4.3183803788742708e-01  -3.9169528182577257e-01  -3.5176687502290754e-01  -3.1205367074164481e-01  -2.7255362593043347e-01  -2.3327079835319561e-01  -1.9426702065162471e-01  -1.5564970899330552e-01  -1.1735359361623604e-01  -7.9136074841097082e-02  -4.4581141594584005e-02  -1.1929506197896216e-02  2.1761983769329828e-02  5.7384984789703872e-02  9.6133316814568145e-02  1.3800956000908426e-01  1.8130766753471458e-01  2.2537318184077193e-01  2.6991167777309666e-01  3.1477039273106117e-01  3.5986037159793910e-01  4.0512501947116353e-01  4.5052582204583308e-01  4.9603516583681856e-01  5.4163240923943468e-01  5.8730157891559631e-01  6.3302994077976737e-01  6.7880707096011472e-01  7.2462422706923002e-01  7.7047390724247056e-01  8.1634953037114721e-01  8.6224519641897801e-01  9.0815550038384307e-01  9.5407538218223220e-01  1.0000000000000000e+00  -2.0000000000000000e+00  -1.8765485179165899e+00  -1.7679238190233451e+00  -1.6707159998474690e+00  -1.5825751559319157e+00  -1.5018028523111830e+00  -1.4271242792889649e+00  -1.3575545856632829e+00  -1.2923157825084370e+00  -1.2307823370607889e+00  -1.1724439921688352e+00  -1.1168794636309340e+00  -1.0637373058426935e+00  -1.0127216708222093e+00  -9.6358150655981789e-01  -9.1610223224731224e-01  -8.7009923432498970e-01  -8.2541272495753382e-01  -7.8190363604130553e-01  -7.3945031183307686e-01  -6.9794582670955729e-01  -6.5729580086464345e-01  -6.1741662218312343e-01  -5.7823401144254172e-01  -5.3968189368069597e-01  -5.0170156433606439e-01  -4.6424117009304189e-01  -4.2725557235289774e-01  -3.9070674428196600e-01  -3.5456498328768737e-01  -3.1881134776479653e-01  -2.8344155466566384e-01  -2.4847011448800424e-01  -2.1392855262830113e-01  -1.7984536225495074e-01  -1.4623222872990582e-01  -1.1324403395971694e-01  -8.1394196593309848e-02  -5.0934364161814578e-02  -2.3026895135102109e-02  3.0220710673624926e-03  2.9783879626283458e-02  5.8753574292877711e-02  9.0819927953534801e-02  1.2663872245948449e-01  1.6522225568705434e-01  2.0559792828900206e-01  2.4714838205527656e-01  2.8950313652055359e-01  3.3243452155320918e-01  3.7579607418953154e-01  4.1948888424088204e-01  4.6344310287535045e-01  5.0760743206200676e-01  5.5194289220532444e-01  5.9641896564318320e-01  6.4101111324335835e-01  6.8569911599146238e-01  7.3046593007433480e-01  7.7529687152950499e-01  8.2017901782314040e-01  8.6510075492092209e-01  9.1005142293416141e-01  9.5502102834508551e-01  1.0000000000000000e+00  -2.0000000000000000e+00  -1.8423637099451793e+00  -1.7089822112762565e+00  -1.5935580729424483e+00  -1.4918754233946752e+00  -1.4009896556512793e+00  -1.3187695262382575e+00  -1.2436263305994104e+00  -1.1743465199445555e+00  -1.1099840202846472e+00  -1.0497884701559950e+00  -9.9315590937101250e-01  -9.3959398802909866e-01  -8.8869685344092819e-01  -8.4012666024407279e-01  -7.9359971985790956e-01  -7.4887596732862793e-01  -7.0575084450342829e-01  -6.6404897312494526e-01  -6.2361917509375542e-01  -5.8433052306005540e-01  -5.4606919339038495e-01  -5.0873595880455602e-01  -4.7224420851594628e-01  -4.3651842548162711e-01  -4.0149308744300449e-01  -3.6711199561221231e-01  -3.3332808522506036e-01  -3.0010387243892528e-01  -2.6741292111785420e-01  -2.3524319562879892e-01  -2.0360400451121941e-01  -1.7253896315704342e-01  -1.4214259785877664e-01  -1.1253629102014086e-01  -8.3718319630523286e-02  -5.5710206873629382e-02  -3.0676409040098669e-02  -7.7942099249649396e-03  1.4423435062415710e-02  3.6867505730417416e-02  6.1499418204809628e-02  8.9508386547826946e-02  1.2050243027207311e-01  1.5437938938278065e-01  1.9064281199064639e-01  2.2871340787896285e-01  2.6811928157077874e-01  3.0851796470063203e-01  3.4966848277169077e-01  3.9140051936609593e-01  4.3359134042748271e-01  4.7615027315267983e-01  5.1900856733053369e-01  5.6211276187667303e-01  6.0542027820845379e-01  6.4889643055902035e-01  6.9251234968804143e-01  7.3624350570714192e-01  7.8006863097807444e-01  8.2396891447098752e-01  8.6792738250740886e-01  9.1192840808679532e-01  9.5595730826394831e-01  1.0000000000000000e+00  -2.0000000000000000e+00  -1.8104070129315930e+00  -1.6554672134557298e+00  -1.5251161679247414e+00  -1.4129373451067913e+00  -1.3146260960768337e+00  -1.2271734188339189e+00  -1.1484039293806747e+00  -1.0767003370068167e+00  -1.0108317386394010e+00  -9.4984250091259159e-01  -8.9297797475629093e-01  -8.3963341385206780e-01  -7.8931797598844655e-01  -7.4162880333607939e-01  -6.9623200527679574e-01  -6.5284847359894849e-01  -6.1124314884765485e-01  -5.7121679709284112e-01  -5.3259964493994250e-01  -4.9524641430848881e-01  -4.5903243219217255e-01  -4.2385058645901880e-01  -3.8960897144905920e-01  -3.5622912629762959e-01  -3.2364481941486412e-01  -2.9180137481053392e-01  -2.6065557322041544e-01  -2.3017622632470841e-01  -2.0034573301780115e-01  -1.7116356887920162e-01  -1.4265446726502248e-01  -1.1488957758424619e-01  -8.8053294307073302e-02  -6.2571229608566037e-02  -3.8549645821671044e-02  -1.6775380664041235e-02  3.0973513171315046e-03  2.2723473361918236e-02  4.3104032017832118e-02  6.5127566821135852e-02  8.9837900914710722e-02  1.1727812342154727e-01  1.4730201720415012e-01  1.7973359280891857e-01  2.1425619501378779e-01  2.5049360966542411e-01  2.8809737164824356e-01  3.2678095793950462e-01  3.6632092546682565e-01  4.0654618007567872e-01  4.4732568495027308e-01  4.8855808197735240e-01  5.3016380223077519e-01  5.7207930976237964e-01  6.1425295475493857e-01  6.5664198109622807e-01  6.9921034649454161e-01  7.4192711208811668e-01  7.8476523220466321e-01  8.2770062657532650e-01  8.7071145255093074e-01  9.1377751864166268e-01  9.5687979662391243e-01  1.0000000000000000e+00  -2.0000000000000000e+00  -1.7804812486217221e+00  -1.6066740925434131e+00  -1.4639883069851460e+00  -1.3435807529295425e+00  -1.2397467414477374e+00  -1.1486228679766655e+00  -1.0674887346113850e+00  -9.9436671330700332e-01  -9.2778050792888134e-01  -8.6660317559399391e-01  -8.0995794864931370e-01  -7.5715148189432868e-01  -7.0762770674361686e-01  -6.6093518000904194e-01  -6.1670350706075217e-01  -5.7462601339088493e-01  -5.3444681225387558e-01  -4.9595102742059738e-01  -4.5895732391804628e-01  -4.2331215972706482e-01  -3.8888534801186986e-01  -3.5556664417530381e-01  -3.2326316634120350e-01  -2.9189753731636014e-01  -2.6140670996280418e-01  -2.3174150362350035e-01  -2.0286691957346076e-01  -1.7476331763745798e-01  -1.4742863574626144e-01  -1.2088232265215833e-01  -9.5172937532949975e-02  -7.0395506802489113e-02  -4.6679293975521029e-02  -2.5718225295921507e-02  -6.8035684696108973e-03  1.1133305663502705e-02  2.8773264754620179e-02  4.7485185375371525e-02  6.8145866873557420e-02  9.0700828621583171e-02  1.1544649521135013e-01  1.4246418901950134e-01  1.7169392231406147e-01  2.0299676963495564e-01  2.3615476559016207e-01  2.7090746412070227e-01  3.0699563741726732e-01  3.4418756994231725e-01  3.8228808108042828e-01  4.2113759051952027e-01  4.6060713732057817e-01  5.0059256757568149e-01  5.4100924985283516e-01  5.8178772018713154e-01  6.2287024995269213e-01  6.6420819257641139e-01  7.0575994310578061e-01  7.4748936394611987e-01  7.8936455917713544e-01  8.3135690707472465e-01  8.7344028247932493e-01  9.1559041730501245e-01  9.5778435959003905e-01  1.0000000000000000e+00  -2.0000000000000000e+00  -1.7524415826013067e+00  -1.5620505318142346e+00  -1.4090950598821970e+00  -1.2821743444304392e+00  -1.1741939662657566e+00  -1.0804829741786626e+00  -9.9782647466803887e-01  -9.2393111291284680e-01  -8.5711205059185525e-01  -7.9610070912351172e-01  -7.3992189269519026e-01  -6.8781255936002916e-01  -6.3916654809847540e-01  -5.9349601611528469e-01  -5.5040394532341597e-01  -5.0956417011704536e-01  -4.7070663506422494e-01  -4.3360636824051196e-01  -3.9807514978947645e-01  -3.6395517744349365e-01  -3.3111424681883267e-01  -2.9944211512858571e-01  -2.6884783120781047e-01  -2.3925791743354921e-01  -2.1061540445660465e-01  -1.8287985941756887e-01  -1.5602868284097043e-01  -1.3006002989479742e-01  -1.0499794187863565e-01  -8.0901732957207831e-02  -5.7886772836368790e-02  -3.6176346291466537e-02  -1.6888694926228347e-02  2.2917214742845937e-04  1.6715412997806944e-02  3.3445199424629472e-02  5.1042975029081034e-02  7.0298136511390247e-02  9.1293421479442860e-02  1.1408338558028924e-01  1.3878306228960532e-01  1.6543821513104648e-01  1.9401271339763887e-01  2.2440479782668049e-01  2.5645863359120252e-01  2.8998584380995568e-01  3.2479014395780587e-01  3.6068560333206900e-01  3.9750623839305022e-01  4.3510896360139573e-01  4.7337270623683808e-01  5.1219580115196039e-01  5.5149290941775209e-01  5.9119207118061945e-01  6.3123213229228714e-01  6.7156059615094477e-01  7.1213186940604956e-01  7.5290584141344596e-01  7.9384673348303392e-01  8.3492216006711151e-01  8.7610235298663197e-01  9.1735950850902315e-01  9.5866722443123131e-01  1.0000000000000000e+00  -2.0000000000000000e+00  -1.7261707868033205e+00  -1.5211484122564132e+00  -1.3595853200534445e+00  -1.2274677398075404e+00  -1.1163544147481050e+00  -1.0208246917716577e+00  -9.3722080852945189e-01  -8.6297522290702033e-01  -7.9622683387496795e-01  -7.3559025432209313e-01  -6.8001096041199860e-01  -6.2867098410688460e-01  -5.8092558181949294e-01  -5.3625955997588581e-01  -4.9425645994481765e-01  -4.5457638617646912e-01  -4.1693978843754487e-01  -3.8111544158041577e-01  -3.4691145271301249e-01  -3.1416850492539122e-01  -2.8275479929281522e-01  -2.5256233155131980e-01  -2.2350427108742263e-01  -1.9551333416801880e-01  -1.6854121786616372e-01  -1.4255946566691755e-01  -1.1756260020366402e-01  -9.3574881130607690e-02  -7.0663237873842932e-02  -4.8962861102154448e-02  -2.8785275639953100e-02  -1.0826783569796191e-02  5.2422490142623205e-03  2.0512259725126842e-02  3.6308037888144677e-02  5.3379444450567783e-02  7.1655299425684285e-02  9.1370964161665583e-02  1.1264629695253463e-01  1.3555622993052566e-01  1.6016415323573552e-01  1.8649289581744030e-01  2.1451391831876715e-01  2.4415107468292496e-01  2.7528912713801190e-01  3.0778713357011206e-01  3.4149349127193102e-01  3.7625846103510241e-01  4.1194230555830819e-01  4.4841931925617418e-01  4.8557892287341797e-01  5.2332502137756964e-01  5.6157451548559356e-01  6.0025552282530736e-01  6.3930561188489299e-01  6.7867019032903109e-01  7.1830109695402711e-01  7.5815539881858030e-01  7.9819437327444287e-01  8.3838264672405549e-01  8.7868746089106764e-01  9.1907803931321697e-01  9.5952502962586339e-01  1.0000000000000000e+00  -2.0000000000000000e+00  -1.7015680370231667e+00  -1.4835950773887621e+00  -1.3147746674110743e+00  -1.1784825446062295e+00  -1.0649933754692200e+00  -9.6819834858299314e-01  -8.8404592052766184e-01  -8.0973136296220583e-01  -7.4324478209807432e-01  -6.8310437943183944e-01  -6.2819154897558982e-01  -5.7764490039975991e-01  -5.3078988126335425e-01  -4.8709071496000828e-01  -4.4611678477894984e-01  -4.0751864067906496e-01  -3.7101058514988933e-01  -3.3635787021702179e-01  -3.0336720885089280e-01  -2.7187973656535463e-01  -2.4176584764660816e-01  -2.1292153094927513e-01  -1.8526597860758282e-01  -1.5874037847905095e-01  -1.3330803227690693e-01  -1.0895654045203093e-01  -8.5704198462935963e-02  -6.3615342140190156e-02  -4.2831919003128847e-02  -2.3740375588026042e-02  -6.7598431042468861e-03  8.5803343567023519e-03  2.3257191620744924e-02  3.8349024910589696e-02  5.4625034379077113e-02  7.2109241063812696e-02  9.0827814061422735e-02  1.1088412375705309e-01  1.3236457223850445e-01  1.5533108395354331e-01  1.7982442490537087e-01  2.0585529658421198e-01  2.3339898937706449e-01  2.6239645544824036e-01  2.9275966670780812e-01  3.2438007206054958e-01  3.5713822652470378e-01  3.9091244397810165e-01  4.2558520354890617e-01  4.6104708499157510e-01  4.9719864462309032e-01  5.3395084599930698e-01  5.7122460832174560e-01  6.0894989275012346e-01  6.4706460209294647e-01  6.8551345632625948e-01  7.2424692926244782e-01  7.6322028363240535e-01  8.0239271407210189e-01  8.4172659266360050e-01  8.8118680454036646e-01  9.2074015822691346e-01  9.6035485475900551e-01  1.0000000000000000e+00  -2.0000000000000000e+00  -1.6785434094092795e+00  -1.4490751009126013e+00  -1.2741037341648915e+00  -1.1344395460178076e+00  -1.0191469616481992e+00  -9.2149010818734878e-01  -8.3706866834305205e-01  -7.6287297573358037e-01  -6.9676741806390963e-01  -6.3719042972297379e-01  -5.8297146952695711e-01  -5.3321470489668021e-01  -4.8722250208043477e-01  -4.4444360975650327e-01  -4.0443718629027087e-01  -3.6684730168827934e-01  -3.3138455774680697e-01  -2.9781267595209271e-01  -2.6593865134108596e-01  -2.3560555404059982e-01  -2.0668738924884439e-01  -1.7908566640616475e-01  -1.5272751565180184e-01  -1.2756534958402518e-01  -1.0357831813348903e-01  -8.0776808516601989e-02  -5.9215362751399575e-02  -3.9026942019266847e-02  -2.0636634112583922e-02  -4.3377262225259500e-03  1.0456547753487561e-02  2.4711915199989640e-02  3.9355351292706453e-02  5.5001613917409903e-02  7.1733833653761403e-02  8.9604671364183167e-02  1.0866259199914084e-01  1.2897314456661968e-01  1.5059678429088683e-01  1.7357910873977225e-01  1.9794716584799274e-01  2.2370487623697224e-01  2.5083028715703842e-01  2.7927609102516376e-01  3.0897301218443074e-01  3.3983526143957449e-01  3.7176689878823271e-01  4.0466788480369437e-01  4.3843897966763967e-01  4.7298517253812977e-01  5.0821772462806081e-01  5.4405510967482218e-01  5.8042317905195862e-01  6.1725483776049406e-01  6.5448944741051052e-01  6.9207210362061267e-01  7.2995288013709947e-01  7.6808609237649184e-01  8.0642960671795849e-01  8.4494420531787784e-01  8.8359300637988425e-01  9.2234093429506459e-01  9.6115423118324550e-01  1.0000000000000000e+00  -2.0000000000000000e+00  -1.6570150007997393e+00  -1.4173180248120800e+00  -1.2371091871059503e+00  -1.0947086967916098e+00  -9.7804973957303476e-01  -8.7982778021102070e-01  -7.9533418413627199e-01  -7.2138215198468936e-01  -6.5572963600292289e-01  -5.9674887081489036e-01  -5.4322707842083218e-01  -4.9424102766256262e-01  -4.4907519939251328e-01  -4.0716676046027117e-01  -3.6806760887314321e-01  -3.3141763469013441e-01  -2.9692556594451708e-01  -2.6435509298383941e-01  -2.3351478389176622e-01  -2.0425083671518698e-01  -1.7644209206923117e-01  -1.4999704160698746e-01  -1.2485287836603820e-01  -1.0097696554117154e-01  -7.8371452509992098e-02  -5.7083218578486306e-02  -3.7230452664835635e-02  -1.9210324871480021e-02  -3.3232755404363702e-03  1.1074925220624140e-02  2.4988981014339242e-02  3.9283300615086343e-02  5.4450684432681327e-02  7.0568245812582059e-02  8.7704014954375284e-02  1.0591301874001777e-01  1.2524473800433786e-01  1.4574907821939789e-01  1.6747031161865081e-01  1.9044140086666622e-01  2.1468025350985587e-01  2.4018675535864589e-01  2.6694119198895311e-01  2.9490460931094525e-01  3.2402102956517698e-01  3.5422106272508458e-01  3.8542622238495799e-01  4.1755321678080376e-01  4.5051765777982911e-01  4.8423690086524296e-01  5.1863197167620101e-01  5.5362868901996254e-01  5.8915816045077307e-01  6.2515683182938353e-01  6.6156624616798909e-01  6.9833263060858120e-01  7.3540639528884644e-01  7.7274159901850326e-01  8.1029541510536285e-01  8.4802761551006767e-01  8.8590008136622789e-01  9.2387634139021535e-01  9.6192113567891213e-01  1.0000000000000000e+00  -2.0000000000000000e+00  -1.6369073393672113e+00  -1.3880896926156356e+00  -1.2034029235957535e+00  -1.0587738848113455e+00  -9.4108482658168102e-01  -8.4251713743095979e-01  -7.5808983298246280e-01  -6.8446283928882157e-01  -6.1930377354077648e-01  -5.6092975082647534e-01  -5.0809353107996069e-01  -4.5985004174432303e-01  -4.1546992152356310e-01  -3.7438174998402479e-01  -3.3613242602748122e-01  -3.0035940843284481e-01  -2.6677094923800632e-01  -2.3513188171039551e-01  -2.0525340841885290e-01  -1.7698591518944251e-01  -1.5021426900912754e-01  -1.2485548162082036e-01  -1.0085923167349214e-01  -7.8212839716232926e-02  -5.6954109299573646e-02  -3.7197786157202213e-02  -1.9271172144556238e-02  -3.5519307599097064e-03  1.0598081367286741e-02  2.4227702477755162e-02  3.8212562254297665e-02  5.2981621813335149e-02  6.8595840010350476e-02  8.5116669945861714e-02  1.0260096161113993e-01  1.2109865063717477e-01  1.4065426305879497e-01  1.6130811868798325e-01  1.8309398309765210e-01  2.0603592959838601e-01  2.3014569196611870e-01  2.5542069969880238e-01  2.8184311612918284e-01  3.0938012466448717e-01  3.3798543404024745e-01  3.6760173751062891e-01  3.9816371124571109e-01  4.2960110215473368e-01  4.6184153380563003e-01  4.9481280146681195e-01  5.2844457219153773e-01  5.6266951427805412e-01  5.9742394190178760e-01  6.3264808293827801e-01  6.6828607482348068e-01  7.0428577735687614e-01  7.4059847139120172e-01  7.7717849330331190e-01  8.1398283917492142e-01  8.5097076025080187e-01  8.8810336218474439e-01  9.2534321422065724e-01  9.6265397014218745e-01  1.0000000000000000e+00  -2.0000000000000000e+00  -1.6181504594139811e+00  -1.3611858698051829e+00  -1.1726567850122984e+00  -1.0262075565443682e+00  -9.0774865535492022e-01  -8.0899772477683207e-01  -7.2473321821772374e-01  -6.5148222938176603e-01  -5.8683550286570807e-01  -5.2906411447745660e-01  -4.7689262547756228e-01  -4.2935853324720447e-01  -3.8572180374425180e-01  -3.4540475329095016e-01  -3.0795102640939143e-01  -2.7299700239751168e-01  -2.4025155631751918e-01  -2.0948162935897105e-01  -1.8050200880031680e-01  -1.5316834489817391e-01  -1.2737291662724606e-01  -1.0304319566770313e-01  -8.0144313161962549e-02  -5.8689642795549578e-02  -3.8774018420546688e-02  -2.0687766969936561e-02  -4.9214583864642903e-03  9.1266382513543708e-03  2.2537188320658437e-02  3.6235085738538314e-02 