<?xml version="1.0"?>
<VTKFile type="UnstructuredGrid"  version="0.1"  >
<UnstructuredGrid>
<Piece  NumberOfPoints="4225" NumberOfCells="8192">
<Points>
<DataArray  type="Float64"  NumberOfComponents="3"  format="ascii">0 0 0  0.015625 0 0  0.03125 0 0  0.046875 0 0  0.0625 0 0  0.078125 0 0  0.09375 0 0  0.109375 0 0  0.125 0 0  0.140625 0 0  0.15625 0 0  0.171875 0 0  0.1875 0 0  0.203125 0 0  0.21875 0 0  0.234375 0 0  0.25 0 0  0.265625 0 0  0.28125 0 0  0.296875 0 0  0.3125 0 0  0.328125 0 0  0.34375 0 0  0.359375 0 0  0.375 0 0  0.390625 0 0  0.40625 0 0  0.421875 0 0  0.4375 0 0  0.453125 0 0  0.46875 0 0  0.484375 0 0  0.5 0 0  0.515625 0 0  0.53125 0 0  0.546875 0 0  0.5625 0 0  0.578125 0 0  0.59375 0 0  0.609375 0 0  0.625 0 0  0.640625 0 0  0.65625 0 0  0.671875 0 0  0.6875 0 0  0.703125 0 0  0.71875 0 0  0.734375 0 0  0.75 0 0  0.765625 0 0  0.78125 0 0  0.796875 0 0  0.8125 0 0  0.828125 0 0  0.84375 0 0  0.859375 0 0  0.875 0 0  0.890625 0 0  0.90625 0 0  0.921875 0 0  0.9375 0 0  0.953125 0 0  0.96875 0 0  0.984375 0 0  1 0 0  0 0.015625 0  0.015625 0.015625 0  0.03125 0.015625 0  0.046875 0.015625 0  0.0625 0.015625 0  0.078125 0.015625 0  0.09375 0.015625 0  0.109375 0.015625 0  0.125 0.015625 0  0.140625 0.015625 0  0.15625 0.015625 0  0.171875 0.015625 0  0.1875 0.015625 0  0.203125 0.015625 0  0.21875 0.015625 0  0.234375 0.015625 0  0.25 0.015625 0  0.265625 0.015625 0  0.28125 0.015625 0  0.296875 0.015625 0  0.3125 0.015625 0  0.328125 0.015625 0  0.34375 0.015625 0  0.359375 0.015625 0  0.375 0.015625 0  0.390625 0.015625 0  0.40625 0.015625 0  0.421875 0.015625 0  0.4375 0.015625 0  0.453125 0.015625 0  0.46875 0.015625 0  0.484375 0.015625 0  0.5 0.015625 0  0.515625 0.015625 0  0.53125 0.015625 0  0.546875 0.015625 0  0.5625 0.015625 0  0.578125 0.015625 0  0.59375 0.015625 0  0.609375 0.015625 0  0.625 0.015625 0  0.640625 0.015625 0  0.65625 0.015625 0  0.671875 0.015625 0  0.6875 0.015625 0  0.703125 0.015625 0  0.71875 0.015625 0  0.734375 0.015625 0  0.75 0.015625 0  0.765625 0.015625 0  0.78125 0.015625 0  0.796875 0.015625 0  0.8125 0.015625 0  0.828125 0.015625 0  0.84375 0.015625 0  0.859375 0.015625 0  0.875 0.015625 0  0.890625 0.015625 0  0.90625 0.015625 0  0.921875 0.015625 0  0.9375 0.015625 0  0.953125 0.015625 0  0.96875 0.015625 0  0.984375 0.015625 0  1 0.015625 0  0 0.03125 0  0.015625 0.03125 0  0.03125 0.03125 0  0.046875 0.03125 0  0.0625 0.03125 0  0.078125 0.03125 0  0.09375 0.03125 0  0.109375 0.03125 0  0.125 0.03125 0  0.140625 0.03125 0  0.15625 0.03125 0  0.171875 0.03125 0  0.1875 0.03125 0  0.203125 0.03125 0  0.21875 0.03125 0  0.234375 0.03125 0  0.25 0.03125 0  0.265625 0.03125 0  0.28125 0.03125 0  0.296875 0.03125 0  0.3125 0.03125 0  0.328125 0.03125 0  0.34375 0.03125 0  0.359375 0.03125 0  0.375 0.03125 0  0.390625 0.03125 0  0.40625 0.03125 0  0.421875 0.03125 0  0.4375 0.03125 0  0.453125 0.03125 0  0.46875 0.03125 0  0.484375 0.03125 0  0.5 0.03125 0  0.515625 0.03125 0  0.53125 0.03125 0  0.546875 0.03125 0  0.5625 0.03125 0  0.578125 0.03125 0  0.59375 0.03125 0  0.609375 0.03125 0  0.625 0.03125 0  0.640625 0.03125 0  0.65625 0.03125 0  0.671875 0.03125 0  0.6875 0.03125 0  0.703125 0.03125 0  0.71875 0.03125 0  0.734375 0.03125 0  0.75 0.03125 0  0.765625 0.03125 0  0.78125 0.03125 0  0.796875 0.03125 0  0.8125 0.03125 0  0.828125 0.03125 0  0.84375 0.03125 0  0.859375 0.03125 0  0.875 0.03125 0  0.890625 0.03125 0  0.90625 0.03125 0  0.921875 0.03125 0  0.9375 0.03125 0  0.953125 0.03125 0  0.96875 0.03125 0  0.984375 0.03125 0  1 0.03125 0  0 0.046875 0  0.015625 0.046875 0  0.03125 0.046875 0  0.046875 0.046875 0  0.0625 0.046875 0  0.078125 0.046875 0  0.09375 0.046875 0  0.109375 0.046875 0  0.125 0.046875 0  0.140625 0.046875 0  0.15625 0.046875 0  0.171875 0.046875 0  0.1875 0.046875 0  0.203125 0.046875 0  0.21875 0.046875 0  0.234375 0.046875 0  0.25 0.046875 0  0.265625 0.046875 0  0.28125 0.046875 0  0.296875 0.046875 0  0.3125 0.046875 0  0.328125 0.046875 0  0.34375 0.046875 0  0.359375 0.046875 0  0.375 0.046875 0  0.390625 0.046875 0  0.40625 0.046875 0  0.421875 0.046875 0  0.4375 0.046875 0  0.453125 0.046875 0  0.46875 0.046875 0  0.484375 0.046875 0  0.5 0.046875 0  0.515625 0.046875 0  0.53125 0.046875 0  0.546875 0.046875 0  0.5625 0.046875 0  0.578125 0.046875 0  0.59375 0.046875 0  0.609375 0.046875 0  0.625 0.046875 0  0.640625 0.046875 0  0.65625 0.046875 0  0.671875 0.046875 0  0.6875 0.046875 0  0.703125 0.046875 0  0.71875 0.046875 0  0.734375 0.046875 0  0.75 0.046875 0  0.765625 0.046875 0  0.78125 0.046875 0  0.796875 0.046875 0  0.8125 0.046875 0  0.828125 0.046875 0  0.84375 0.046875 0  0.859375 0.046875 0  0.875 0.046875 0  0.890625 0.046875 0  0.90625 0.046875 0  0.921875 0.046875 0  0.9375 0.046875 0  0.953125 0.046875 0  0.96875 0.046875 0  0.984375 0.046875 0  1 0.046875 0  0 0.0625 0  0.015625 0.0625 0  0.03125 0.0625 0  0.046875 0.0625 0  0.0625 0.0625 0  0.078125 0.0625 0  0.09375 0.0625 0  0.109375 0.0625 0  0.125 0.0625 0  0.140625 0.0625 0  0.15625 0.0625 0  0.171875 0.0625 0  0.1875 0.0625 0  0.203125 0.0625 0  0.21875 0.0625 0  0.234375 0.0625 0  0.25 0.0625 0  0.265625 0.0625 0  0.28125 0.0625 0  0.296875 0.0625 0  0.3125 0.0625 0  0.328125 0.0625 0  0.34375 0.0625 0  0.359375 0.0625 0  0.375 0.0625 0  0.390625 0.0625 0  0.40625 0.0625 0  0.421875 0.0625 0  0.4375 0.0625 0  0.453125 0.0625 0  0.46875 0.0625 0  0.484375 0.0625 0  0.5 0.0625 0  0.515625 0.0625 0  0.53125 0.0625 0  0.546875 0.0625 0  0.5625 0.0625 0  0.578125 0.0625 0  0.59375 0.0625 0  0.609375 0.0625 0  0.625 0.0625 0  0.640625 0.0625 0  0.65625 0.0625 0  0.671875 0.0625 0  0.6875 0.0625 0  0.703125 0.0625 0  0.71875 0.0625 0  0.734375 0.0625 0  0.75 0.0625 0  0.765625 0.0625 0  0.78125 0.0625 0  0.796875 0.0625 0  0.8125 0.0625 0  0.828125 0.0625 0  0.84375 0.0625 0  0.859375 0.0625 0  0.875 0.0625 0  0.890625 0.0625 0  0.90625 0.0625 0  0.921875 0.0625 0  0.9375 0.0625 0  0.953125 0.0625 0  0.96875 0.0625 0  0.984375 0.0625 0  1 0.0625 0  0 0.078125 0  0.015625 0.078125 0  0.03125 0.078125 0  0.046875 0.078125 0  0.0625 0.078125 0  0.078125 0.078125 0  0.09375 0.078125 0  0.109375 0.078125 0  0.125 0.078125 0  0.140625 0.078125 0  0.15625 0.078125 0  0.171875 0.078125 0  0.1875 0.078125 0  0.203125 0.078125 0  0.21875 0.078125 0  0.234375 0.078125 0  0.25 0.078125 0  0.265625 0.078125 0  0.28125 0.078125 0  0.296875 0.078125 0  0.3125 0.078125 0  0.328125 0.078125 0  0.34375 0.078125 0  0.359375 0.078125 0  0.375 0.078125 0  0.390625 0.078125 0  0.40625 0.078125 0  0.421875 0.078125 0  0.4375 0.078125 0  0.453125 0.078125 0  0.46875 0.078125 0  0.484375 0.078125 0  0.5 0.078125 0  0.515625 0.078125 0  0.53125 0.078125 0  0.546875 0.078125 0  0.5625 0.078125 0  0.578125 0.078125 0  0.59375 0.078125 0  0.609375 0.078125 0  0.625 0.078125 0  0.640625 0.078125 0  0.65625 0.078125 0  0.671875 0.078125 0  0.6875 0.078125 0  0.703125 0.078125 0  0.71875 0.078125 0  0.734375 0.078125 0  0.75 0.078125 0  0.765625 0.078125 0  0.78125 0.078125 0  0.796875 0.078125 0  0.8125 0.078125 0  0.828125 0.078125 0  0.84375 0.078125 0  0.859375 0.078125 0  0.875 0.078125 0  0.890625 0.078125 0  0.90625 0.078125 0  0.921875 0.078125 0  0.9375 0.078125 0  0.953125 0.078125 0  0.96875 0.078125 0  0.984375 0.078125 0  1 0.078125 0  0 0.09375 0  0.015625 0.09375 0  0.03125 0.09375 0  0.046875 0.09375 0  0.0625 0.09375 0  0.078125 0.09375 0  0.09375 0.09375 0  0.109375 0.09375 0  0.125 0.09375 0  0.140625 0.09375 0  0.15625 0.09375 0  0.171875 0.09375 0  0.1875 0.09375 0  0.203125 0.09375 0  0.21875 0.09375 0  0.234375 0.09375 0  0.25 0.09375 0  0.265625 0.09375 0  0.28125 0.09375 0  0.296875 0.09375 0  0.3125 0.09375 0  0.328125 0.09375 0  0.34375 0.09375 0  0.359375 0.09375 0  0.375 0.09375 0  0.390625 0.09375 0  0.40625 0.09375 0  0.421875 0.09375 0  0.4375 0.09375 0  0.453125 0.09375 0  0.46875 0.09375 0  0.484375 0.09375 0  0.5 0.09375 0  0.515625 0.09375 0  0.53125 0.09375 0  0.546875 0.09375 0  0.5625 0.09375 0  0.578125 0.09375 0  0.59375 0.09375 0  0.609375 0.09375 0  0.625 0.09375 0  0.640625 0.09375 0  0.65625 0.09375 0  0.671875 0.09375 0  0.6875 0.09375 0  0.703125 0.09375 0  0.71875 0.09375 0  0.734375 0.09375 0  0.75 0.09375 0  0.765625 0.09375 0  0.78125 0.09375 0  0.796875 0.09375 0  0.8125 0.09375 0  0.828125 0.09375 0  0.84375 0.09375 0  0.859375 0.09375 0  0.875 0.09375 0  0.890625 0.09375 0  0.90625 0.09375 0  0.921875 0.09375 0  0.9375 0.09375 0  0.953125 0.09375 0  0.96875 0.09375 0  0.984375 0.09375 0  1 0.09375 0  0 0.109375 0  0.015625 0.109375 0  0.03125 0.109375 0  0.046875 0.109375 0  0.0625 0.109375 0  0.078125 0.109375 0  0.09375 0.109375 0  0.109375 0.109375 0  0.125 0.109375 0  0.140625 0.109375 0  0.15625 0.109375 0  0.171875 0.109375 0  0.1875 0.109375 0  0.203125 0.109375 0  0.21875 0.109375 0  0.234375 0.109375 0  0.25 0.109375 0  0.265625 0.109375 0  0.28125 0.109375 0  0.296875 0.109375 0  0.3125 0.109375 0  0.328125 0.109375 0  0.34375 0.109375 0  0.359375 0.109375 0  0.375 0.109375 0  0.390625 0.109375 0  0.40625 0.109375 0  0.421875 0.109375 0  0.4375 0.109375 0  0.453125 0.109375 0  0.46875 0.109375 0  0.484375 0.109375 0  0.5 0.109375 0  0.515625 0.109375 0  0.53125 0.109375 0  0.546875 0.109375 0  0.5625 0.109375 0  0.578125 0.109375 0  0.59375 0.109375 0  0.609375 0.109375 0  0.625 0.109375 0  0.640625 0.109375 0  0.65625 0.109375 0  0.671875 0.109375 0  0.6875 0.109375 0  0.703125 0.109375 0  0.71875 0.109375 0  0.734375 0.109375 0  0.75 0.109375 0  0.765625 0.109375 0  0.78125 0.109375 0  0.796875 0.109375 0  0.8125 0.109375 0  0.828125 0.109375 0  0.84375 0.109375 0  0.859375 0.109375 0  0.875 0.109375 0  0.890625 0.109375 0  0.90625 0.109375 0  0.921875 0.109375 0  0.9375 0.109375 0  0.953125 0.109375 0  0.96875 0.109375 0  0.984375 0.109375 0  1 0.109375 0  0 0.125 0  0.015625 0.125 0  0.03125 0.125 0  0.046875 0.125 0  0.0625 0.125 0  0.078125 0.125 0  0.09375 0.125 0  0.109375 0.125 0  0.125 0.12
[...]
<PointData  Scalars="f_6"> 
<DataArray  type="Float64"  Name="f_6"  format="ascii">-2.0000000000000000e+00  -1.9531250000000000e+00  -1.9062500000000000e+00  -1.8593750000000000e+00  -1.8125000000000000e+00  -1.7656250000000000e+00  -1.7187500000000000e+00  -1.6718750000000000e+00  -1.6250000000000000e+00  -1.5781250000000000e+00  -1.5312500000000000e+00  -1.4843750000000000e+00  -1.4375000000000000e+00  -1.3906250000000000e+00  -1.3437500000000000e+00  -1.2968750000000000e+00  -1.2500000000000000e+00  -1.2031250000000000e+00  -1.1562500000000000e+00  -1.1093750000000000e+00  -1.0625000000000000e+00  -1.0156250000000000e+00  -9.6875000000000000e-01  -9.2187500000000000e-01  -8.7500000000000000e-01  -8.2812500000000000e-01  -7.8125000000000000e-01  -7.3437500000000000e-01  -6.8750000000000000e-01  -6.4062500000000000e-01  -5.9375000000000000e-01  -5.4687500000000000e-01  -5.0000000000000000e-01  -4.5312500000000006e-01  -4.0625000000000000e-01  -3.5937500000000000e-01  -3.1250000000000000e-01  -2.6562500000000000e-01  -2.1874999999999997e-01  -1.7187500000000000e-01  -1.2500000000000000e-01  -7.8124999999999986e-02  -3.1250000000000000e-02  1.5625000000000000e-02  6.2500000000000000e-02  1.0937500000000000e-01  1.5625000000000000e-01  2.0312500000000000e-01  2.5000000000000000e-01  2.9687500000000000e-01  3.4375000000000000e-01  3.9062500000000000e-01  4.3750000000000000e-01  4.8437500000000000e-01  5.3125000000000000e-01  5.7812500000000000e-01  6.2500000000000000e-01  6.7187500000000000e-01  7.1875000000000000e-01  7.6562500000000000e-01  8.1250000000000000e-01  8.5937500000000000e-01  9.0625000000000000e-01  9.5312500000000000e-01  1.0000000000000000e+00  -2.0000000000000000e+00  -1.9132715822630464e+00  -1.8332346555668215e+00  -1.7584623973222768e+00  -1.6880327636974484e+00  -1.6212759104319234e+00  -1.5576722335597106e+00  -1.4968030411106084e+00  -1.4383228497888492e+00  -1.3819419762002949e+00  -1.3274146760933159e+00  -1.2745305870284405e+00  -1.2231082976281047e+00  -1.1729903706909526e+00  -1.1240394070071915e+00  -1.0761348806625546e+00  -1.0291705617789932e+00  -9.8305239595225569e-01  -9.3769674475280451e-01  -8.9302891590940781e-01  -8.4898192942394868e-01  -8.0549547949137001e-01  -7.6251506348886011e-01  -7.1999125979810230e-01  -6.7787914713410580e-01  -6.3613787122892917e-01  -5.9473038345236473e-01  -5.5362340513789732e-01  -5.1278771290996217e-01  -4.7219887409971367e-01  -4.3183849768389715e-01  -3.9169567176697656e-01  -3.5176719544633056e-01  -3.1205392408765936e-01  -2.7255381552724844e-01  -2.3327092767659013e-01  -1.9426709660014399e-01  -1.5564974141895671e-01  -1.1735358150055827e-01  -7.9136015960203310e-02  -4.4581067490751775e-02  -1.1929441458954592e-02  2.1762033885432491e-02  5.7385021305171167e-02  9.6133344860080280e-02  1.3800958264114549e-01  1.8130768636191674e-01  2.2537319781264012e-01  2.6991169150140365e-01  3.1477040463612332e-01  3.5986038198238512e-01  4.0512502856053978e-01  4.5052583001262336e-01  4.9603517281550191e-01  5.4163241533637163e-01  5.8730158421576373e-01  6.3302994535148560e-01  6.7880707485843994e-01  7.2462423033843271e-01  7.7047390991786713e-01  8.1634953248045861e-01  8.6224519798333421e-01  9.0815550141851198e-01  9.5407538269712722e-01  1.0000000000000000e+00  -2.0000000000000000e+00  -1.8765484416670812e+00  -1.7679237461113591e+00  -1.6707159869143613e+00  -1.5825752423356680e+00  -1.5018030641222713e+00  -1.4271246322275546e+00  -1.3575550873261368e+00  -1.2923164340988000e+00  -1.2307831347586513e+00  -1.1724449282336036e+00  -1.1168805273001310e+00  -1.0637384840718567e+00  -1.0127229488987930e+00  -9.6358286861538256e-01  -9.1610366168625090e-01  -8.7010071418369650e-01  -8.2541423820474691e-01  -7.8190516582803049e-01  -7.3945184169878064e-01  -6.9794734075001597e-01  -6.5729728386564390e-01  -6.1741805972298713e-01  -5.7823538996538959e-01  -5.3968320054295815e-01  -5.0170278783442335e-01  -4.6424229949762968e-01  -4.2725659799702215e-01  -3.9070765779019784e-01  -3.5456577803419065e-01  -3.1881201961100480e-01  -2.8344210289997307e-01  -2.4847054263610138e-01  -2.1392886827641283e-01  -1.7984557395824377e-01  -1.4623234149367201e-01  -1.1324405903563052e-01  -8.1394166231355300e-02  -5.0934264557702981e-02  -2.3026759848052046e-02  3.0221978283053817e-03  2.9783987906844837e-02  5.8753660724489683e-02  9.0819994314038657e-02  1.2663877549400446e-01  1.6522229934258462e-01  2.0559796499388133e-01  2.4714841338724006e-01  2.8950316355685124e-01  3.3243454506070458e-01  3.7579609473287728e-01  4.1948890224715046e-01  4.6344311867445209e-01  5.0760744591301332e-01  5.5194290431422077e-01  5.9641897617519801e-01  6.4101112233173863e-01  6.8569912374384179e-01  7.3046593657742387e-01  7.7529687685257709e-01  8.2017902202063331e-01  8.6510075803436659e-01  9.1005142499358638e-01  9.5502102936999667e-01  1.0000000000000000e+00  -2.0000000000000000e+00  -1.8423636145164866e+00  -1.7089821594516375e+00  -1.5935581518511310e+00  -1.4918756850972577e+00  -1.4009901280554717e+00  -1.3187702203799310e+00  -1.2436272456318667e+00  -1.1743476466411185e+00  -1.1099853435505480e+00  -1.0497899708636536e+00  -9.9315756572271374e-01  -9.3959577658264004e-01  -8.8869874989017716e-01  -8.4012864001791909e-01  -7.9360175858213167e-01  -7.4887804118235946e-01  -7.0575293049308963e-01  -6.6405104929242886e-01  -6.2362122067143555e-01  -5.8433251858218227e-01  -5.4607112076787889e-01  -5.0873780136743707e-01  -4.7224595102425659e-01  -4.3652005410320099e-01  -4.0149458970017893e-01  -3.6711336031935971e-01  -3.3332930248247317e-01  -3.0010493380656050e-01  -2.6741382012873549e-01  -2.3524392877062300e-01  -2.0360457268800122e-01  -1.7253937345132656e-01  -1.4214286483136693e-01  -1.1253643265103047e-01  -8.3718336448546440e-02  -5.5710092992057335e-02  -3.0676226535949390e-02  -7.7940059433040214e-03  1.4423629188142294e-02  3.6867669051084885e-02  6.1499551670378252e-02  8.9508495950750944e-02  1.2050251973248932e-01  1.5437946345931425e-01  1.9064287424130730e-01  2.2871346088378403e-01  2.6811932718558762e-01  3.0851800427805676e-01  3.4966851731696685e-01  3.9140054964126908e-01  4.3359136702073281e-01  4.7615029652502117e-01  5.1900858784787818e-01  5.6211277983230035e-01  6.0542029383906881e-01  6.4889644405642910e-01  6.9251236120776527e-01  7.3624351537484378e-01  7.8006863889438449e-01  8.2396892071513095e-01  8.6792738713991302e-01  9.1192841115147050e-01  9.5595730978927296e-01  1.0000000000000000e+00  -2.0000000000000000e+00  -1.8104069086739683e+00  -1.6554672097545045e+00  -1.5251163781752088e+00  -1.4129378265742638e+00  -1.3146268709345290e+00  -1.2271744870646948e+00  -1.1484052769094002e+00  -1.0767019409549927e+00  -1.0108335707943323e+00  -9.4984453006007707e-01  -8.9298016827287907e-01  -8.3963573880456976e-01  -7.8932039989902703e-01  -7.4163129471607048e-01  -6.9623453399757340e-01  -6.5285101114583222e-01  -6.1124566848820860e-01  -5.7121927398142458e-01  -5.3260205617420109e-01  -4.9524873894944488e-01  -4.5903465125641418e-01  -4.2385268288747358e-01  -3.8961093005009068e-01  -3.5623093365268671e-01  -3.2364646372955630e-01  -2.9180284571166726e-01  -2.6065686156361995e-01  -2.3017732418243494e-01  -2.0034663410177461e-01  -1.7116426962665754e-01  -1.4265496867089072e-01  -1.1488988795705156e-01  -8.8053434359177299e-02  -6.2571244393430606e-02  -3.8549509525282070e-02  -1.6775145560124279e-02  3.0976060013755413e-03  2.2723722959450420e-02  4.3104255374396890e-02  6.5127750181338123e-02  8.9838053772832369e-02  1.1727825167564655e-01  1.4730212520585342e-01  1.7973368436945589e-01  2.1425627327954633e-01  2.5049367711435999e-01  2.8809743019326967e-01  3.2678100905282143e-01  3.6632097028783672e-01  4.0654621949449926e-01  4.4732571966949070e-01  4.8855811255702142e-01  5.3016382912117799e-01  5.7207933332803329e-01  6.1425297529234790e-01  6.5664199884714347e-01  6.9921036165594652e-01  7.4192712481980105e-01  7.8476524263498604e-01  8.2770063480559275e-01  8.7071145865868416e-01  9.1377752268310941e-01  9.5687979863562467e-01  1.0000000000000000e+00  -2.0000000000000000e+00  -1.7804811446204383e+00  -1.6066741579959183e+00  -1.4639886755423852e+00  -1.3435814796804082e+00  -1.2397478366365535e+00  -1.1486243161580199e+00  -1.0674905058465183e+00  -9.9436876986705836e-01  -9.2778280838432559e-01  -8.6660567734260352e-01  -8.0996060948960880e-01  -7.5715426100371985e-01  -7.0763056527881096e-01  -6.6093808146301802e-01  -6.1670641746056543e-01  -5.7462890138984857e-01  -5.3444964915257664e-01  -4.9595378713937921e-01  -4.5895998293657542e-01  -4.2331469700283109e-01  -3.8888774488724853e-01  -3.5556888427922245e-01  -3.2326523548146258e-01  -2.9189942333720559e-01  -2.6140840251415404e-01  -2.3174299378612603e-01  -2.0286819937046180e-01  -1.7476437965430525e-01  -1.4742947326687722e-01  -1.2088293069284552e-01  -9.5173314722169569e-02  -7.0395657028044081e-02  -4.6679219921903076e-02  -2.5718015427808188e-02  -6.8032822534021707e-03  1.1133614147903452e-02  2.8773550189365962e-02  4.7485439651725976e-02  6.8146091847234441e-02  9.0701022527038377e-02  1.1544666156396649e-01  1.4246433177314952e-01  1.7169404504582197e-01  2.0299687553310944e-01  2.3615485739306233e-01  2.7090754410083995e-01  3.0699570742030940e-01  3.4418763145212256e-01  3.8228813528705913e-01  4.2113763837940071e-01  4.6060717960570902e-01  5.0059260491239577e-01  5.4100928275177940e-01  5.8178774906630681e-01  6.2287027515514548e-01  6.6420821438385014e-01  7.0575996174907640e-01  7.4748937961342743e-01  7.8936457202016630e-01  8.3135691721357008e-01  8.7344029000612133e-01  9.1559042228665843e-01  9.5778436207011630e-01  1.0000000000000000e+00  -2.0000000000000000e+00  -1.7524414868383549e+00  -1.5620506826759595e+00  -1.4090956045921752e+00  -1.2821753293368632e+00  -1.1741953850180387e+00  -1.0804847932164179e+00  -9.9782864709688401e-01  -9.2393358621454347e-01  -8.5711477095617139e-01  -7.9610362388017630e-01  -7.3992495165510919e-01  -6.8781571552071286e-01  -6.3916975797520525e-01  -5.9349923985101372e-01  -5.5040714666797896e-01  -5.0956731632959917e-01  -4.7070969677101665e-01  -4.3360931926722429e-01  -3.9807796698058207e-01  -3.6395784047887664e-01  -3.3111673803912101e-01  -2.9944441938155675e-01  -2.6884993571913590e-01  -2.3925981166864910e-01  -2.1061707986505751e-01  -1.8288130888194928e-01  -1.5602989974137615e-01  -1.3006100705477316e-01  -1.0499867107528671e-01  -8.0902205872648236e-02  -5.7886983301935667e-02  -3.6176281261412757e-02  -1.6888452248500704e-02  2.2948229772926522e-04  1.6715751576033267e-02  3.3445529129648634e-02  5.1043264140973779e-02  7.0298393610853105e-02  9.1293649835776522e-02  1.1408358651561452e-01  1.3878323818284577e-01  1.6543836880716314e-01  1.9401284767117552e-01  2.2440491532409751e-01  2.5645873665875352e-01  2.8998593447562809e-01  3.2479022393500556e-01  3.6068567404830032e-01  3.9750630102887696e-01  4.3510901913033495e-01  4.7337275546154900e-01  5.1219584473507296e-01  5.5149294790723702e-01  5.9119210503026887e-01  6.3123216187807718e-01  6.7156062178403597e-01  7.1213189134308197e-01  7.5290585986466563e-01  7.9384674861868110e-01  8.3492217202239949e-01  8.7610236186557233e-01  9.1735951438728680e-01  9.5866722735818199e-01  1.0000000000000000e+00  -2.0000000000000000e+00  -1.7261707062455778e+00  -1.5211486608931968e+00  -1.3595860520153293e+00  -1.2274689872234970e+00  -1.1163561514042053e+00  -1.0208268646047953e+00  -9.3722335362871345e-01  -8.6297807374959978e-01  -7.9622992554381700e-01  -7.3559352559502167e-01  -6.8001435470678429e-01  -6.2867444980891840e-01  -5.8092907227912205e-01  -5.3626303333397829e-01  -4.9425987887428696e-01  -4.5457971758763843e-01  -4.1694300317238836e-01  -3.8111851410771047e-01  -3.4691436083014071e-01  -3.1417122947255938e-01  -2.8275732389271108e-01  -2.5256464240027970e-01  -2.2350635682985351e-01  -1.9551518584391028e-01  -1.6854282876580770e-01  -1.4256083066822711e-01  -1.1756371415761067e-01  -9.3575736498645340e-02  -7.0663822700073181e-02  -4.8963159019492178e-02  -2.8785247578378848e-02  -1.0826531988228683e-02  5.2425843206216549e-03  2.0512602485078951e-02  3.6308367364294790e-02  5.3379756149954841e-02  7.1655583634027437e-02  9.1371220814936163e-02  1.1264652736940407e-01  1.3555643551679747e-01  1.6016433584463891e-01  1.8649305760148177e-01  2.1451406150761942e-01  2.4415120143335153e-01  2.7528923944222622e-01  3.0778723320791351e-01  3.4149357979578399e-01  3.7625853977719603e-01  4.1194237564981367e-01  4.4841938165151329e-01  4.8557897837507913e-01  5.2332507065911016e-01  5.6157455911182697e-01  6.0025556126945412e-01  6.3930564554285851e-01  6.7867021953113482e-01  7.1830112197454998e-01  7.5815541988347190e-01  7.9819439056749275e-01  8.3838266039177423e-01  8.7868747104648193e-01  9.1907804603873444e-01  9.5952503297532421e-01  1.0000000000000000e+00  -2.0000000000000000e+00  -1.7015679776724957e+00  -1.4835954329395669e+00  -1.3147755926644182e+00  -1.1784840531223211e+00  -1.0649954190749864e+00  -9.6820085426923985e-01  -8.8404880795447138e-01  -8.0973455275970874e-01  -7.4324819966332722e-01  -6.8310795648250955e-01  -6.2819522398347283e-01  -5.7764861847523674e-01  -5.3079359378526925e-01  -4.8709437910308467e-01  -4.4612036301593805e-01  -4.0752210029446356e-01  -3.7101389777960952e-01  -3.3636101141534386e-01  -3.0337015767918746e-01  -2.7188247519736919e-01  -2.4176836099848900e-01  -2.1292380637711059e-01  -1.8526800576671848e-01  -1.5874214944419951e-01  -1.3330954177846566e-01  -1.0895778534766815e-01  -8.5705175037847789e-02  -6.3616041144457555e-02  -4.2832319588058124e-02  -2.3740400646075587e-02  -6.7595906588450091e-03  8.5806988361929286e-03  2.3257564044194122e-02  3.8349371074698463e-02  5.4625359246112122e-02  7.2109544471848516e-02  9.0828093430245005e-02  1.1088437864545997e-01  1.3236480331010608e-01  1.5533129233753237e-01  1.7982461207743075e-01  2.0585546424650553e-01  2.3339913932446893e-01  2.6239658945946320e-01  2.9275978646888606e-01  3.2438017911801592e-01  3.5713832226302061e-01  3.9091252961488632e-01  4.2558528014166852e-01  4.6104715345082536e-01  4.9719870572814451e-01  5.3395090041446147e-01  5.7122465661150656e-01  6.0894993539286257e-01  6.4706463949276827e-01  6.8551348882309526e-01  7.2424695714051124e-01  7.6322030712717992e-01  8.0239273337604389e-01  8.4172660793072285e-01  8.8118681588984704e-01  9.2074016574584494e-01  9.6035485850438118e-01  1.0000000000000000e+00  -2.0000000000000000e+00  -1.6785433763346045e+00  -1.4490755698023343e+00  -1.2741048549132739e+00  -1.1344413103271702e+00  -1.0191492982269192e+00  -9.2149292429382212e-01  -8.3707186817438750e-01  -7.6287646838214396e-01  -6.9677112064656688e-01  -6.3719426825918146e-01  -5.8297537878655192e-01  -5.3321862780654250e-01  -4.8722638897535026e-01  -4.4444741760996243e-01  -4.0444087798603268e-01  -3.6685084535520723e-01  -3.3138792615859541e-01  -2.9781584598010929e-01  -2.6594160343803896e-01  -2.3560827172648027e-01  -2.0668985858033795e-01  -1.7908787546583085e-01  -1.5272945423529785e-01  -1.2756700946726005e-01  -1.0357969415430675e-01  -8.0777898885496205e-02  -5.9216164412854759e-02  -3.9027440758153474e-02  -2.0636720058118566e-02  -4.3374811224274985e-03  1.0456941293870601e-02  2.4712323305357348e-02  3.9355724251238997e-02  5.5001958523408639e-02  7.1734154073606685e-02  8.9604969061082104e-02  1.0866286696964413e-01  1.2897339702655258e-01  1.5059701488802804e-01  1.7357931844579519e-01  1.9794735588104620e-01  2.2370504798264074e-01  2.5083044208428756e-01  2.7927623061114620e-01  3.0897313785583908e-01  3.3983537453224361e-01  3.7176700052339690e-01  4.0466797627766027e-01  4.3843906185114873e-01  4.7298524628197525e-01  5.0821779067221229e-01  5.4405516865908476e-01  5.8042323152687569e-01  6.1725488419772145e-01  6.5448948821225661e-01  6.9207213912796683e-01  7.2995291063721990e-01  7.6808611810869287e-01  8.0642962787877981e-01  8.4494422206522657e-01  8.8359301883633823e-01  9.2234094255041699e-01  9.6115423529635557e-01  1.0000000000000000e+00  -2.0000000000000000e+00  -1.6570149981623394e+00  -1.4173186111589280e+00  -1.2371105026185039e+00  -1.0947107089680705e+00  -9.7805235356649933e-01  -8.7983088419822508e-01  -7.9533766801210792e-01  -7.2138591463090218e-01  -6.5573358756184619e-01  -5.9675293279743846e-01  -5.4323118292728589e-01  -4.9424511629933726e-01  -4.4907922214712986e-01  -4.0717067464608331e-01  -3.6807137818429020e-01  -3.3142122837342181e-01  -2.9692895807729852e-01  -2.6435826183340727e-01  -2.3351771131402102e-01  -2.0425350752451030e-01  -1.7644449328710030e-01  -1.4999916152514811e-01  -1.2485470558818139e-01  -1.0097848885226839e-01  -7.8372663329041165e-02  -5.7084114231335518e-02  -3.7231026851976518e-02  -1.9210469714963065e-02  -3.3230516644161723e-03  1.1075336753815786e-02  2.4989421789557997e-02  3.9283700462817331e-02  5.4451051131995831e-02  7.0568584694090469e-02  8.7704329463823810e-02  1.0591331072922901e-01  1.2524500836069688e-01  1.4574932760307827e-01  1.6747054076965820e-01  1.9044161067657422e-01  2.1468044501831829e-01  2.4018692971872352e-01  2.6694135041889439e-01  2.9490475304499497e-01  3.2402115981108065e-01  3.5422118063172253e-01  3.8542632902066287e-01  4.1755331312120919e-01  4.5051774470329148e-01  4.8423697915371422e-01  5.1863204201964452e-01  5.5362875202278994e-01  5.8915821663918977e-01  6.2515688165889116e-01  6.6156629003056999e-01  6.9833266883929568e-01  7.3540642817170909e-01  7.7274162679159053e-01  8.1029543796515646e-01  8.4802763361506495e-01  8.8590009483986232e-01  9.2387635032312931e-01  9.6192114013062446e-01  1.0000000000000000e+00  -2.0000000000000000e+00  -1.6369073704452288e+00  -1.3880903985612556e+00  -1.2034044308797167e+00  -1.0587761351917202e+00  -9.4108770176199386e-01  -8.4252050743137075e-01  -7.5809357462954841e-01  -6.8446684252114165e-01  -6.1930794269260414e-01  -5.6093400390879056e-01  -5.0809779835790725e-01  -4.5985426416761893e-01  -4.1547404923766046e-01  -3.7438574100344491e-01  -3.3613624508882406e-01  -3.0036302601841769e-01  -2.6677434074954481e-01  -2.3513502676185341e-01  -2.0525629019337499e-01  -1.7698851974896426e-01  -1.5021658433429469e-01  -1.2485749600956686e-01  -1.0086093115635583e-01  -7.8214205314015794e-02  -5.6955120019317053e-02  -3.7198432157667494e-02  -1.9271376128850961e-02  -3.5517499077787999e-03  1.0598480444852053e-02  2.4228155874763881e-02  3.8212978790420564e-02  5.2982005624358140e-02  6.8596195119836584e-02  8.5116999657133555e-02  1.0260126835836904e-01  1.2109893603131325e-01  1.4065452814083618e-01  1.6130836425540543e-01  1.8309420991095221e-01  2.0603613847252525e-01  2.3014588379692921e-01  2.5542087545504066e-01  2.8184327682757149e-01  3.0938027133885865e-01  3.3798556771176624e-01  3.6760185916290283e-01  3.9816382180632309e-01  4.2960120248322209e-01  4.6184162468709378e-01  4.9481288360994580e-01  5.2844464622986165e-01  5.6266958077324025e-01  5.9742400134820250e-01  6.3264813576808365e-01  6.6828612141183608e-01  7.0428581802693646e-01  7.4059850641873037e-01  7.7717852292080392e-01  8.1398286357518979e-01  8.5097077959001477e-01  8.8810337658491667e-01  9.2534322377161327e-01  9.6265397490301274e-01  1.0000000000000000e+00  -2.0000000000000000e+00  -1.6181505266290661e+00  -1.3611866957865382e+00  -1.1726584793196559e+00  -1.0262100343399323e+00  -9.0775177539483165e-01  -8.0900134000665735e-01  -7.2473719362476874e-01  -6.5148644712744674e-01  -5.8683986249069497e-01  -5.2906853132864162e-01  -4.7689702864421513e-01  -4.2936286351900049e-01  -3.8572601177559129e-01  -3.4540879801816937e-01  -3.0795487371319225e-01  -2.7300062398596464e-01  -2.4025492880378616e-01  -2.0948473350882749e-01  -1.8050482890949776e-01  -1.5317086818912706e-01  -1.2737513233798445e-01  -1.0304509295418995e-01  -8.0145875802246497e-02  -5.8690837657678470e-02  -3.8774786792297823e-02  -2.0688052935876295e-02  -4.9213457099499007e-03  9.1269859935963187e-03  2.2537617193086903e-02  3.6235497262075290e-02 