<?xml version="1.0"?>
<VTKFile type="UnstructuredGrid"  version="0.1"  >
<UnstructuredGrid>
<Piece  NumberOfPoints="4225" NumberOfCells="8192">
<Points>
<DataArray  type="Float64"  NumberOfComponents="3"  format="ascii">0 0 0  0.015625 0 0  0.03125 0 0  0.046875 0 0  0.0625 0 0  0.078125 0 0  0.09375 0 0  0.109375 0 0  0.125 0 0  0.140625 0 0  0.15625 0 0  0.171875 0 0  0.1875 0 0  0.203125 0 0  0.21875 0 0  0.234375 0 0  0.25 0 0  0.265625 0 0  0.28125 0 0  0.296875 0 0  0.3125 0 0  0.328125 0 0  0.34375 0 0  0.359375 0 0  0.375 0 0  0.390625 0 0  0.40625 0 0  0.421875 0 0  0.4375 0 0  0.453125 0 0  0.46875 0 0  0.484375 0 0  0.5 0 0  0.515625 0 0  0.53125 0 0  0.546875 0 0  0.5625 0 0  0.578125 0 0  0.59375 0 0  0.609375 0 0  0.625 0 0  0.640625 0 0  0.65625 0 0  0.671875 0 0  0.6875 0 0  0.703125 0 0  0.71875 0 0  0.734375 0 0  0.75 0 0  0.765625 0 0  0.78125 0 0  0.796875 0 0  0.8125 0 0  0.828125 0 0  0.84375 0 0  0.859375 0 0  0.875 0 0  0.890625 0 0  0.90625 0 0  0.921875 0 0  0.9375 0 0  0.953125 0 0  0.96875 0 0  0.984375 0 0  1 0 0  0 0.015625 0  0.015625 0.015625 0  0.03125 0.015625 0  0.046875 0.015625 0  0.0625 0.015625 0  0.078125 0.015625 0  0.09375 0.015625 0  0.109375 0.015625 0  0.125 0.015625 0  0.140625 0.015625 0  0.15625 0.015625 0  0.171875 0.015625 0  0.1875 0.015625 0  0.203125 0.015625 0  0.21875 0.015625 0  0.234375 0.015625 0  0.25 0.015625 0  0.265625 0.015625 0  0.28125 0.015625 0  0.296875 0.015625 0  0.3125 0.015625 0  0.328125 0.015625 0  0.34375 0.015625 0  0.359375 0.015625 0  0.375 0.015625 0  0.390625 0.015625 0  0.40625 0.015625 0  0.421875 0.015625 0  0.4375 0.015625 0  0.453125 0.015625 0  0.46875 0.015625 0  0.484375 0.015625 0  0.5 0.015625 0  0.515625 0.015625 0  0.53125 0.015625 0  0.546875 0.015625 0  0.5625 0.015625 0  0.578125 0.015625 0  0.59375 0.015625 0  0.609375 0.015625 0  0.625 0.015625 0  0.640625 0.015625 0  0.65625 0.015625 0  0.671875 0.015625 0  0.6875 0.015625 0  0.703125 0.015625 0  0.71875 0.015625 0  0.734375 0.015625 0  0.75 0.015625 0  0.765625 0.015625 0  0.78125 0.015625 0  0.796875 0.015625 0  0.8125 0.015625 0  0.828125 0.015625 0  0.84375 0.015625 0  0.859375 0.015625 0  0.875 0.015625 0  0.890625 0.015625 0  0.90625 0.015625 0  0.921875 0.015625 0  0.9375 0.015625 0  0.953125 0.015625 0  0.96875 0.015625 0  0.984375 0.015625 0  1 0.015625 0  0 0.03125 0  0.015625 0.03125 0  0.03125 0.03125 0  0.046875 0.03125 0  0.0625 0.03125 0  0.078125 0.03125 0  0.09375 0.03125 0  0.109375 0.03125 0  0.125 0.03125 0  0.140625 0.03125 0  0.15625 0.03125 0  0.171875 0.03125 0  0.1875 0.03125 0  0.203125 0.03125 0  0.21875 0.03125 0  0.234375 0.03125 0  0.25 0.03125 0  0.265625 0.03125 0  0.28125 0.03125 0  0.296875 0.03125 0  0.3125 0.03125 0  0.328125 0.03125 0  0.34375 0.03125 0  0.359375 0.03125 0  0.375 0.03125 0  0.390625 0.03125 0  0.40625 0.03125 0  0.421875 0.03125 0  0.4375 0.03125 0  0.453125 0.03125 0  0.46875 0.03125 0  0.484375 0.03125 0  0.5 0.03125 0  0.515625 0.03125 0  0.53125 0.03125 0  0.546875 0.03125 0  0.5625 0.03125 0  0.578125 0.03125 0  0.59375 0.03125 0  0.609375 0.03125 0  0.625 0.03125 0  0.640625 0.03125 0  0.65625 0.03125 0  0.671875 0.03125 0  0.6875 0.03125 0  0.703125 0.03125 0  0.71875 0.03125 0  0.734375 0.03125 0  0.75 0.03125 0  0.765625 0.03125 0  0.78125 0.03125 0  0.796875 0.03125 0  0.8125 0.03125 0  0.828125 0.03125 0  0.84375 0.03125 0  0.859375 0.03125 0  0.875 0.03125 0  0.890625 0.03125 0  0.90625 0.03125 0  0.921875 0.03125 0  0.9375 0.03125 0  0.953125 0.03125 0  0.96875 0.03125 0  0.984375 0.03125 0  1 0.03125 0  0 0.046875 0  0.015625 0.046875 0  0.03125 0.046875 0  0.046875 0.046875 0  0.0625 0.046875 0  0.078125 0.046875 0  0.09375 0.046875 0  0.109375 0.046875 0  0.125 0.046875 0  0.140625 0.046875 0  0.15625 0.046875 0  0.171875 0.046875 0  0.1875 0.046875 0  0.203125 0.046875 0  0.21875 0.046875 0  0.234375 0.046875 0  0.25 0.046875 0  0.265625 0.046875 0  0.28125 0.046875 0  0.296875 0.046875 0  0.3125 0.046875 0  0.328125 0.046875 0  0.34375 0.046875 0  0.359375 0.046875 0  0.375 0.046875 0  0.390625 0.046875 0  0.40625 0.046875 0  0.421875 0.046875 0  0.4375 0.046875 0  0.453125 0.046875 0  0.46875 0.046875 0  0.484375 0.046875 0  0.5 0.046875 0  0.515625 0.046875 0  0.53125 0.046875 0  0.546875 0.046875 0  0.5625 0.046875 0  0.578125 0.046875 0  0.59375 0.046875 0  0.609375 0.046875 0  0.625 0.046875 0  0.640625 0.046875 0  0.65625 0.046875 0  0.671875 0.046875 0  0.6875 0.046875 0  0.703125 0.046875 0  0.71875 0.046875 0  0.734375 0.046875 0  0.75 0.046875 0  0.765625 0.046875 0  0.78125 0.046875 0  0.796875 0.046875 0  0.8125 0.046875 0  0.828125 0.046875 0  0.84375 0.046875 0  0.859375 0.046875 0  0.875 0.046875 0  0.890625 0.046875 0  0.90625 0.046875 0  0.921875 0.046875 0  0.9375 0.046875 0  0.953125 0.046875 0  0.96875 0.046875 0  0.984375 0.046875 0  1 0.046875 0  0 0.0625 0  0.015625 0.0625 0  0.03125 0.0625 0  0.046875 0.0625 0  0.0625 0.0625 0  0.078125 0.0625 0  0.09375 0.0625 0  0.109375 0.0625 0  0.125 0.0625 0  0.140625 0.0625 0  0.15625 0.0625 0  0.171875 0.0625 0  0.1875 0.0625 0  0.203125 0.0625 0  0.21875 0.0625 0  0.234375 0.0625 0  0.25 0.0625 0  0.265625 0.0625 0  0.28125 0.0625 0  0.296875 0.0625 0  0.3125 0.0625 0  0.328125 0.0625 0  0.34375 0.0625 0  0.359375 0.0625 0  0.375 0.0625 0  0.390625 0.0625 0  0.40625 0.0625 0  0.421875 0.0625 0  0.4375 0.0625 0  0.453125 0.0625 0  0.46875 0.0625 0  0.484375 0.0625 0  0.5 0.0625 0  0.515625 0.0625 0  0.53125 0.0625 0  0.546875 0.0625 0  0.5625 0.0625 0  0.578125 0.0625 0  0.59375 0.0625 0  0.609375 0.0625 0  0.625 0.0625 0  0.640625 0.0625 0  0.65625 0.0625 0  0.671875 0.0625 0  0.6875 0.0625 0  0.703125 0.0625 0  0.71875 0.0625 0  0.734375 0.0625 0  0.75 0.0625 0  0.765625 0.0625 0  0.78125 0.0625 0  0.796875 0.0625 0  0.8125 0.0625 0  0.828125 0.0625 0  0.84375 0.0625 0  0.859375 0.0625 0  0.875 0.0625 0  0.890625 0.0625 0  0.90625 0.0625 0  0.921875 0.0625 0  0.9375 0.0625 0  0.953125 0.0625 0  0.96875 0.0625 0  0.984375 0.0625 0  1 0.0625 0  0 0.078125 0  0.015625 0.078125 0  0.03125 0.078125 0  0.046875 0.078125 0  0.0625 0.078125 0  0.078125 0.078125 0  0.09375 0.078125 0  0.109375 0.078125 0  0.125 0.078125 0  0.140625 0.078125 0  0.15625 0.078125 0  0.171875 0.078125 0  0.1875 0.078125 0  0.203125 0.078125 0  0.21875 0.078125 0  0.234375 0.078125 0  0.25 0.078125 0  0.265625 0.078125 0  0.28125 0.078125 0  0.296875 0.078125 0  0.3125 0.078125 0  0.328125 0.078125 0  0.34375 0.078125 0  0.359375 0.078125 0  0.375 0.078125 0  0.390625 0.078125 0  0.40625 0.078125 0  0.421875 0.078125 0  0.4375 0.078125 0  0.453125 0.078125 0  0.46875 0.078125 0  0.484375 0.078125 0  0.5 0.078125 0  0.515625 0.078125 0  0.53125 0.078125 0  0.546875 0.078125 0  0.5625 0.078125 0  0.578125 0.078125 0  0.59375 0.078125 0  0.609375 0.078125 0  0.625 0.078125 0  0.640625 0.078125 0  0.65625 0.078125 0  0.671875 0.078125 0  0.6875 0.078125 0  0.703125 0.078125 0  0.71875 0.078125 0  0.734375 0.078125 0  0.75 0.078125 0  0.765625 0.078125 0  0.78125 0.078125 0  0.796875 0.078125 0  0.8125 0.078125 0  0.828125 0.078125 0  0.84375 0.078125 0  0.859375 0.078125 0  0.875 0.078125 0  0.890625 0.078125 0  0.90625 0.078125 0  0.921875 0.078125 0  0.9375 0.078125 0  0.953125 0.078125 0  0.96875 0.078125 0  0.984375 0.078125 0  1 0.078125 0  0 0.09375 0  0.015625 0.09375 0  0.03125 0.09375 0  0.046875 0.09375 0  0.0625 0.09375 0  0.078125 0.09375 0  0.09375 0.09375 0  0.109375 0.09375 0  0.125 0.09375 0  0.140625 0.09375 0  0.15625 0.09375 0  0.171875 0.09375 0  0.1875 0.09375 0  0.203125 0.09375 0  0.21875 0.09375 0  0.234375 0.09375 0  0.25 0.09375 0  0.265625 0.09375 0  0.28125 0.09375 0  0.296875 0.09375 0  0.3125 0.09375 0  0.328125 0.09375 0  0.34375 0.09375 0  0.359375 0.09375 0  0.375 0.09375 0  0.390625 0.09375 0  0.40625 0.09375 0  0.421875 0.09375 0  0.4375 0.09375 0  0.453125 0.09375 0  0.46875 0.09375 0  0.484375 0.09375 0  0.5 0.09375 0  0.515625 0.09375 0  0.53125 0.09375 0  0.546875 0.09375 0  0.5625 0.09375 0  0.578125 0.09375 0  0.59375 0.09375 0  0.609375 0.09375 0  0.625 0.09375 0  0.640625 0.09375 0  0.65625 0.09375 0  0.671875 0.09375 0  0.6875 0.09375 0  0.703125 0.09375 0  0.71875 0.09375 0  0.734375 0.09375 0  0.75 0.09375 0  0.765625 0.09375 0  0.78125 0.09375 0  0.796875 0.09375 0  0.8125 0.09375 0  0.828125 0.09375 0  0.84375 0.09375 0  0.859375 0.09375 0  0.875 0.09375 0  0.890625 0.09375 0  0.90625 0.09375 0  0.921875 0.09375 0  0.9375 0.09375 0  0.953125 0.09375 0  0.96875 0.09375 0  0.984375 0.09375 0  1 0.09375 0  0 0.109375 0  0.015625 0.109375 0  0.03125 0.109375 0  0.046875 0.109375 0  0.0625 0.109375 0  0.078125 0.109375 0  0.09375 0.109375 0  0.109375 0.109375 0  0.125 0.109375 0  0.140625 0.109375 0  0.15625 0.109375 0  0.171875 0.109375 0  0.1875 0.109375 0  0.203125 0.109375 0  0.21875 0.109375 0  0.234375 0.109375 0  0.25 0.109375 0  0.265625 0.109375 0  0.28125 0.109375 0  0.296875 0.109375 0  0.3125 0.109375 0  0.328125 0.109375 0  0.34375 0.109375 0  0.359375 0.109375 0  0.375 0.109375 0  0.390625 0.109375 0  0.40625 0.109375 0  0.421875 0.109375 0  0.4375 0.109375 0  0.453125 0.109375 0  0.46875 0.109375 0  0.484375 0.109375 0  0.5 0.109375 0  0.515625 0.109375 0  0.53125 0.109375 0  0.546875 0.109375 0  0.5625 0.109375 0  0.578125 0.109375 0  0.59375 0.109375 0  0.609375 0.109375 0  0.625 0.109375 0  0.640625 0.109375 0  0.65625 0.109375 0  0.671875 0.109375 0  0.6875 0.109375 0  0.703125 0.109375 0  0.71875 0.109375 0  0.734375 0.109375 0  0.75 0.109375 0  0.765625 0.109375 0  0.78125 0.109375 0  0.796875 0.109375 0  0.8125 0.109375 0  0.828125 0.109375 0  0.84375 0.109375 0  0.859375 0.109375 0  0.875 0.109375 0  0.890625 0.109375 0  0.90625 0.109375 0  0.921875 0.109375 0  0.9375 0.109375 0  0.953125 0.109375 0  0.96875 0.109375 0  0.984375 0.109375 0  1 0.109375 0  0 0.125 0  0.015625 0.125 0  0.03125 0.125 0  0.046875 0.125 0  0.0625 0.125 0  0.078125 0.125 0  0.09375 0.125 0  0.109375 0.125 0  0.125 0.12
[...]
<PointData  Scalars="f_6"> 
<DataArray  type="Float64"  Name="f_6"  format="ascii">-2.0000000000000000e+00  -1.9531250000000000e+00  -1.9062500000000000e+00  -1.8593750000000000e+00  -1.8125000000000000e+00  -1.7656250000000000e+00  -1.7187500000000000e+00  -1.6718750000000000e+00  -1.6250000000000000e+00  -1.5781250000000000e+00  -1.5312500000000000e+00  -1.4843750000000000e+00  -1.4375000000000000e+00  -1.3906250000000000e+00  -1.3437500000000000e+00  -1.2968750000000000e+00  -1.2500000000000000e+00  -1.2031250000000000e+00  -1.1562500000000000e+00  -1.1093750000000000e+00  -1.0625000000000000e+00  -1.0156250000000000e+00  -9.6875000000000000e-01  -9.2187500000000000e-01  -8.7500000000000000e-01  -8.2812500000000000e-01  -7.8125000000000000e-01  -7.3437500000000000e-01  -6.8750000000000000e-01  -6.4062500000000000e-01  -5.9375000000000000e-01  -5.4687500000000000e-01  -5.0000000000000000e-01  -4.5312500000000000e-01  -4.0625000000000000e-01  -3.5937500000000000e-01  -3.1250000000000000e-01  -2.6562500000000000e-01  -2.1875000000000000e-01  -1.7187500000000000e-01  -1.2499999999999999e-01  -7.8125000000000000e-02  -3.1250000000000000e-02  1.5625000000000000e-02  6.2500000000000000e-02  1.0937500000000000e-01  1.5625000000000000e-01  2.0312500000000000e-01  2.5000000000000000e-01  2.9687500000000000e-01  3.4375000000000000e-01  3.9062500000000000e-01  4.3750000000000000e-01  4.8437500000000000e-01  5.3125000000000000e-01  5.7812500000000000e-01  6.2500000000000000e-01  6.7187500000000000e-01  7.1875000000000000e-01  7.6562500000000000e-01  8.1250000000000000e-01  8.5937500000000000e-01  9.0625000000000000e-01  9.5312500000000000e-01  1.0000000000000000e+00  -2.0000000000000000e+00  -1.9142782857546694e+00  -1.8351811850297752e+00  -1.7612658679392788e+00  -1.6915994874115763e+00  -1.6255054938938047e+00  -1.5624608312073236e+00  -1.5020459681126421e+00  -1.4439166936764025e+00  -1.3877863006940798e+00  -1.3334133838477731e+00  -1.2805929928238207e+00  -1.2291499546446651e+00  -1.1789336867862181e+00  -1.1298140837859811e+00  -1.0816782048206999e+00  -1.0344275753648753e+00  -9.8797596964101153e-01  -9.4224757582538177e-01  -8.9717547022299582e-01  -8.5270034408374495e-01  -8.0876944000567508e-01  -7.6533566567343447e-01  -7.2235686203435212e-01  -6.7979521109589802e-01  -6.3761677444628329e-01  -5.9579115606718636e-01  -5.5429128337345757e-01  -5.1309330835336464e-01  -4.7217666873996444e-01  -4.3152444738343743e-01  -3.9112432158929072e-01  -3.5097037192985581e-01  -3.1106516727537670e-01  -2.7142005777913170e-01  -2.3205490891664390e-01  -1.9301965129694018e-01  -1.5440965465235110e-01  -1.1622417125429943e-01  -7.8232747415885789e-02  -4.3869285137004145e-02  -1.1363739579291534e-02  2.2234784704889644e-02  5.7788466831287529e-02  9.6483543388022494e-02  1.3832152386641003e-01  1.8158878609149590e-01  2.2562791943658242e-01  2.7014309491511235e-01  3.1498076003175979e-01  3.6005145667612193e-01  4.0529824109520773e-01  4.5068234221485431e-01  4.9617594916827940e-01  5.4175826343420441e-01  5.8741318345025861e-01  6.3312786785320518e-01  6.7889180111151382e-01  7.2469616099173861e-01  7.7053337479090400e-01  8.1639679743652882e-01  8.6228047013210019e-01  9.0817893296815810e-01  9.5408707367679857e-01  1.0000000000000000e+00  -2.0000000000000000e+00  -1.8785424678398239e+00  -1.7717187463724411e+00  -1.6760869323152203e+00  -1.5892842233405646e+00  -1.5096112421505949e+00  -1.4357997894372969e+00  -1.3668763920661717e+00  -1.3020773987366192e+00  -1.2407933711986676e+00  -1.1825310871621544e+00  -1.1268866747265278e+00  -1.0735260865982592e+00  -1.0221705868600997e+00  -9.7258576212091752e-01  -9.2457307187104465e-01  -8.7796326654537926e-01  -8.3261120418771528e-01  -7.8839173110991956e-01  -7.4519638373406527e-01  -7.0293073316254007e-01  -6.6151224066041203e-01  -6.2086852766708156e-01  -5.8093599257850648e-01  -5.4165873074946924e-01  -5.0298773378882711e-01  -4.6488035677829964e-01  -4.2730004728780313e-01  -3.9021634254211707e-01  -3.5360520884460683e-01  -3.1745001541561513e-01  -2.8174390231761720e-01  -2.4649464644569558e-01  -2.1173133783267220e-01  -1.7750485262477181e-01  -1.4386902001528723e-01  -1.1095567751711898e-01  -7.9226168895030202e-02  -4.9121146820976812e-02  -2.1594575214099063e-02  4.2113615268213975e-03  3.0794353421890557e-02  5.9620492828554333e-02  9.1588374687041160e-02  1.2732418285439237e-01  1.6583876598612179e-01  2.0615570106299119e-01  2.4765479673972141e-01  2.8996370019210721e-01  3.3285348853580510e-01  3.7617682557752002e-01  4.1983416548985480e-01  4.6375517859593018e-01  5.0788819102405902e-01  5.5219392111827992e-01  5.9664160251362508e-01  6.4120648685104775e-01  6.8586817560111191e-01  7.3060946806453708e-01  7.7541554073534869e-01  8.2027334482311143e-01  8.6517115012371382e-01  9.1009818806373322e-01  9.5504436173903595e-01  1.0000000000000000e+00  -2.0000000000000000e+00  -1.8453287627003523e+00  -1.7145310273822758e+00  -1.6012689940110580e+00  -1.5013286670912445e+00  -1.4117878572619353e+00  -1.3305471844494059e+00  -1.2560534745118883e+00  -1.1871293419402982e+00  -1.1228639290071531e+00  -1.0625403499331996e+00  -1.0055860170277580e+00  -9.5153772469619979e-01  -9.0001654206781767e-01  -8.5070939988533067e-01  -8.0335535453451878e-01  -7.5773518890141001e-01  -7.1366343906203222e-01  -6.7098221509590938e-01  -6.2955637028055433e-01  -5.8926969967433684e-01  -5.5002193795762100e-01  -5.1172639143539111e-01  -4.7430809008763986e-01  -4.3770238896182195e-01  -4.0185398605231881e-01  -3.6671635149263765e-01  -3.3225157157040275e-01  -2.9843060653944142e-01  -2.6523401209027281e-01  -2.3265351307006329e-01  -2.0069600724417161e-01  -1.6939402291065500e-01  -1.3882721425569552e-01  -1.0914152275026733e-01  -8.0432302525345639e-02  -5.2753019154596868e-02  -2.8104051758936842e-02  -5.6325315267022526e-03  1.6252930981909559e-02  3.8460535988538165e-02  6.2907674433217042e-02  9.0757289801327079e-02  1.2162035623393047e-01  1.5538604735638403e-01  1.9155365616069392e-01  2.2954045543462578e-01  2.6887186626720477e-01  3.0920342057778982e-01  3.5029266834183331e-01  3.9196819160829838e-01  4.3410641669076144e-01  4.7661601565495254e-01  5.1942771521374731e-01  5.6248762750123105e-01  6.0575281863491426e-01  6.4918830143624906e-01  6.9276494637734976e-01  7.3645799492994890e-01  7.8024597526284256e-01  8.2410989099685428e-01  8.6803259747591088e-01  9.1199830742402577e-01  9.5599218521561169e-01  1.0000000000000000e+00  -2.0000000000000000e+00  -1.8143284055014079e+00  -1.6626789364746799e+00  -1.5349543402494619e+00  -1.4247764782779739e+00  -1.3279048346762174e+00  -1.2414006886122231e+00  -1.1631568261176708e+00  -1.0916188044539274e+00  -1.0256122951176607e+00  -9.6423200598549685e-01  -9.0676784172420022e-01  -8.5265440321913144e-01  -8.0143558307731055e-01  -7.5273920218983159e-01  -7.0625849374644634e-01  -6.6173836296733735e-01  -6.1896504653270346e-01  -5.7775823839521168e-01  -5.3796503709922117e-01  -4.9945526199975260e-01  -4.6211781732874074e-01  -4.2585787681222848e-01  -3.9059473379379217e-01  -3.5626022508465388e-01  -3.2279769837655764e-01  -2.9016154797688359e-01  -2.5831736562382307e-01  -2.2724270478756822e-01  -1.9692835765132410e-01  -1.6738023212677527e-01  -1.3862373153969301e-01  -1.1072009688041694e-01  -8.3824225672721450e-02  -5.8384343075167142e-02  -3.4740310512349347e-02  -1.3457947448819089e-02  6.0035301229354179e-03  2.5245347317085283e-02  4.5306941252460632e-02  6.7109537182926685e-02  9.1618518521112399e-02  1.1888063570960648e-01  1.4874971309096954e-01  1.8104599417651937e-01  2.1544935586564426e-01  2.5158059824761314e-01  2.8908879231668205e-01  3.2768544751001366e-01  3.6714557264544007e-01  4.0729685582307884e-01  4.4800729400993988e-01  4.8917475211937123e-01  5.3071902667474646e-01  5.7257605503798159e-01  6.1469374308855163e-01  6.5702895388168392e-01  6.9954531354208915e-01  7.4221159001506576e-01  7.8500047438921872e-01  8.2788764642555235e-01  8.7085104135904956e-01  9.1387025894084739e-01  9.5692607169938482e-01  1.0000000000000000e+00  -2.0000000000000000e+00  -1.7853443847618382e+00  -1.6154611697455514e+00  -1.4757579014142392e+00  -1.3574899410045183e+00  -1.2550749878376204e+00  -1.1647681386863920e+00  -1.0839546941757909e+00  -1.0107482199902125e+00  -9.4375002832140853e-01  -8.8189891425063283e-01  -8.2437377773798937e-01  -7.7052850151539698e-01  -7.1984719829191857e-01  -6.7191271958538079e-01  -6.2638403592275604e-01  -5.8297969807101757e-01  -5.4146556052362171e-01  -5.0164555505000230e-01  -4.6335469045912203e-01  -4.2645370922904136e-01  -3.9082500256443869e-01  -3.5636950449008437e-01  -3.2300437572832014e-01  -2.9066137013579785e-01  -2.5928587022319316e-01  -2.2883669105221793e-01  -1.9928684587300857e-01  -1.7062542002927239e-01  -1.4286032805823945e-01  -1.1602116338344826e-01  -9.0161578967157416e-02  -6.5370275083616730e-02  -4.1810215865071360e-02  -2.1180145718475533e-02  -2.7484385935625721e-03  1.4733512193724109e-02  3.2002834978732686e-02  5.0386396271046754e-02  7.0748506326794261e-02  9.3052152969595528e-02  1.1757622675869935e-01  1.4439702142501695e-01  1.7345186624382183e-01  2.0459886039307962e-01  2.3761717487775072e-01  2.7224378937350041e-01  3.0821725724189686e-01  3.4530400450014276e-01  3.8330731890683450e-01  4.2206636502863726e-01  4.6145115140654769e-01  5.0135667213784607e-01  5.4169758432788584e-01  5.8240382288739723e-01  6.2341714479962584e-01  6.6468845745984573e-01  7.0617576389425718e-01  7.4784257719900593e-01  7.8965668585341420e-01  8.3158917895708662e-01  8.7361366259388762e-01  9.1570561528092975e-01  9.5784184264108030e-01  1.0000000000000000e+00  -2.0000000000000000e+00  -1.7582311319167085e+00  -1.5723286246068506e+00  -1.4226173015066117e+00  -1.2978780921887352e+00  -1.1912107435165904e+00  -1.0981173716651678e+00  -1.0155282282343043e+00  -9.4126893730095307e-01  -8.7375148190369634e-01  -8.1178605601242571e-01  -7.5446174833047275e-01  -7.0106821301814071e-01  -6.5104269813464588e-01  -6.0393329308359311e-01  -5.5937285897359046e-01  -5.1706018318537350e-01  -4.7674613832205764e-01  -4.3822338712321945e-01  -4.0131865578409115e-01  -3.6588690944978142e-01  -3.3180697000345000e-01  -2.9897825702749231e-01  -2.6731843613451939e-01  -2.3676185474065636e-01  -2.0725877739547438e-01  -1.7877565693097286e-01  -1.5129701020973024e-01  -1.2482970622056558e-01  -9.9410236675982172e-02  -7.5115386643274565e-02  -5.2079459741078166e-02  -3.0567040280295152e-02  -1.1643199814613420e-02  5.0409239389733462e-03  2.1052795047946757e-02  3.7351328081548979e-02  5.4614544963313312e-02  7.3548896461574795e-02  9.4248534814074164e-02  1.1677434160996183e-01  1.4123721411907250e-01  1.6767935698794037e-01  1.9606187006622133e-01  2.2628040627422663e-01  2.5817669387877867e-01  2.9156012712674090e-01  3.2623244277726154e-01  3.6200599434182634e-01  3.9871333345311832e-01  4.3621013397808756e-01  4.7437427444976715e-01  5.1310320069757975e-01  5.5231081561155393e-01  5.9192450738409541e-01  6.3188255576270957e-01  6.7213196726381619e-01  7.1262670737608824e-01  7.5332626903328626e-01  7.9419451286834553e-01  8.3519872095549186e-01  8.7630881477848477e-01  9.1749669694790348e-01  9.5873568358400640e-01  1.0000000000000000e+00  -2.0000000000000000e+00  -1.7328700614146717e+00  -1.5328362019488599e+00  -1.3746977248357124e+00  -1.2447270333083056e+00  -1.1347589790594281e+00  -1.0396038771561145e+00  -9.5578829084887151e-01  -8.8088950282726752e-01  -8.1315988387265636e-01  -7.5130320706385567e-01  -6.9433537632898767e-01  -6.4149439513311335e-01  -5.9218027475488777e-01  -5.4591381159840713e-01  -5.0230763694464808e-01  -4.6104547679215269e-01  -4.2186704794549468e-01  -3.8455691972635586e-01  -3.4893623540462693e-01  -3.1485655062319989e-01  -2.8219528582425707e-01  -2.5085245145764434e-01  -2.2074841800493117e-01  -1.9182260195283068e-01  -1.6403309758238979e-01  -1.3735767317894604e-01  -1.1179744574017350e-01  -8.7385918574293675e-02  -6.4207616655631905e-02  -4.2439847164826183e-02  -2.2467514553305933e-02  -4.8914109704612475e-03  1.0748647351623649e-02  2.5584839815368656e-02  4.0956609974392176e-02  5.7631261499763400e-02  7.5555120331396830e-02  9.4946109797864886e-02  1.1592239485796579e-01  1.3855946453710519e-01  1.6291893111968844e-01  1.8902132234145055e-01  2.1683585075889650e-01  2.4628420075882695e-01  2.7724906723639647e-01  3.0958758247742302e-01  3.4314639239858202e-01  3.7777419663678263e-01  4.1332988658572511e-01  4.4968656298082754e-01  4.8673261171685367e-01  5.2437104059115180e-01  5.6251797003665482e-01  6.0110083527472080e-01  6.4005660360330152e-01  6.7933014845662110e-01  7.1887282931299334e-01  7.5864127868970554e-01  7.9859637563118968e-01  8.3870237721805074e-01  8.7892617861665601e-01  9.1923667414819277e-01  9.5960419474704239e-01  1.0000000000000000e+00  -2.0000000000000000e+00  -1.7091585841063979e+00  -1.4966141065591769e+00  -1.3313298853310671e+00  -1.1970905577453632e+00  -1.0845357834948788e+00  -9.8784655439218272e-01  -9.0319309042215601e-01  -8.2793864177881127e-01  -7.6020061652016335e-01  -6.9859417134036417e-01  -6.4207503455620074e-01  -5.8983920325104022e-01  -5.4125671803470354e-01  -4.9582665164941797e-01  -4.5314575253722544e-01  -4.1288614447776922e-01  -3.7477920004026394e-01  -3.3860373665509497e-01  -3.0417732445659762e-01  -2.7134990674930559e-01  -2.3999920894351534e-01  -2.1002760194949630e-01  -1.8136021764138374e-01  -1.5394421089554011e-01  -1.2774920158373149e-01  -1.0276946490250172e-01  -7.9030576347632484e-02  -5.6608880818230636e-02  -3.5685635074869500e-02  -1.6758636141893185e-02  -1.5929518233545706e-04  1.4745915086412244e-02  2.8997454126987041e-02  4.3681335137312205e-02  5.9557543534489873e-02  7.6661987611715623e-02  9.5028565064645701e-02  1.1475802754052211e-01  1.3593547028281899e-01  1.5862219056080479e-01  1.8285772348112556e-01  2.0865115049927702e-01  2.3597600986908746e-01  2.6477147876578827e-01  2.9494779183055725e-01  3.2639474314797290e-01  3.5899134770286051e-01  3.9261451322099722e-01  4.2714545327217207e-01  4.6247361964264377e-01  4.9849856884566823e-01  5.3513037991351931e-01  5.7228918866919309e-01  6.0990426007483178e-01  6.4791287491915439e-01  6.8625919364637322e-01  7.2489318272955872e-01  7.6376964078135323e-01  8.0284733374865669e-01  8.4208823366886576e-01  8.8145684832189553e-01  9.2091962628116952e-01  9.6044442125597018e-01  1.0000000000000000e+00  -2.0000000000000000e+00  -1.6870047692033450e+00  -1.4633496434228077e+00  -1.2919682541197473e+00  -1.1542174830580387e+00  -1.0396197196008690e+00  -9.4178686409990042e-01  -8.5657514254523548e-01  -7.8116300554475471e-01  -7.1355318445839166e-01  -6.5228649758783608e-01  -5.9626872697536548e-01  -5.4466133499129432e-01  -4.9680995991672877e-01  -4.5219618772732018e-01  -4.1040417819510860e-01  -3.7109707358463462e-01  -3.3400004068968592e-01  -2.9888794232300447e-01  -2.6557634292845539e-01  -2.3391501139025569e-01  -2.0378340074763196e-01  -1.7508782485935298e-01  -1.4776024582440031e-01  -1.2175873525480552e-01  -9.7069762614536245e-02  -7.3712921063034897e-02  -5.1753351630879185e-02  -3.1352035973752725e-02  -1.3038700731464169e-02  2.9187676292734680e-03  1.7274552466850942e-02  3.1098887148361263e-02  4.5337735415837417e-02  6.0585503072403221e-02  7.6930241414539524e-02  9.4430580347963478e-02  1.1313912477494829e-01  1.3312196501675888e-01  1.5443926817198331e-01  1.7713610394216942e-01  2.0123862174473200e-01  2.2674954630544453e-01  2.5364555945238781e-01  2.8187791260468154e-01  3.1137587817207146e-01  3.4205225058105088e-01  3.7380974204388995e-01  4.0654705527217377e-01  4.4016379363932223e-01  4.7456389347190736e-01  5.0965766410965618e-01  5.4536272154806398e-01  5.8160414465176657e-01  6.1831414143625874e-01  6.5543144235211170e-01  6.9290056848015869e-01  7.3067106717751518e-01  7.6869676795749209e-01  8.0693508491321819e-01  8.4534637538685997e-01  8.8389335472089048e-01  9.2254056139861951e-01  9.6125386399566892e-01  1.0000000000000000e+00  -2.0000000000000000e+00  -1.6663245890859313e+00  -1.4327749731067487e+00  -1.2561620314320663e+00  -1.1155019999970115e+00  -9.9928068088211308e-01  -9.0059713942941855e-01  -8.1503090749656282e-01  -7.3960038216030144e-01  -6.7221030654293268e-01  -6.1133866173442020e-01  -5.5584939701277947e-01  -5.0487530132886616e-01  -4.5774194727100492e-01  -4.1391672136075197e-01  -3.7297375020410278e-01  -3.3456923598719740e-01  -2.9842382167151810e-01  -2.6430985342057844e-01  -2.3204217775935604e-01  -2.0147161410390863e-01  -1.7248060857479425e-01  -1.4498090080119641e-01  -1.1891339879394017e-01  -9.4250935685441045e-02  -7.1005091299811515e-02  -4.9238610877735005e-02  -2.9094944291404669e-02  -1.1042331176491588e-02  4.5820165431271270e-03  1.8559002583599105e-02  3.2027968004640021e-02  4.5906455375369734e-02  6.0669097315598081e-02  7.6392700321923732e-02  9.3147338703301441e-02  1.1099096759065058e-01  1.2997538867042518e-01  1.5015143957958166e-01  1.7156353344618602e-01  1.9424433529115753e-01  2.1821111325018852e-01  2.4346285352538127e-01  2.6997876903033757e-01  2.9771873402847837e-01  3.2662555767199630e-01  3.5662863896026903e-01  3.8764831461947452e-01  4.1960017218448609e-01  4.5239877254103622e-01  4.8596049649600714e-01  5.2020547257298477e-01  5.5505869751731451e-01  5.9045052695355038e-01  6.2631671866632499e-01  6.6259818457287534e-01  6.9924057074463530e-01  7.3619374954285133e-01  7.7341127895788175e-01  8.1084986255986435e-01  8.4846882824446546e-01  8.8622963377618680e-01  9.2409540059674922e-01  9.6203047332808578e-01  1.0000000000000000e+00  -2.0000000000000000e+00  -1.6470404216794901e+00  -1.4046584528299799e+00  -1.2235343957715481e+00  -1.0804488774774184e+00  -9.6293114831746651e-01  -8.6361902833080317e-01  -7.7784796227437492e-01  -7.0249722140009130e-01  -6.3538734008108910e-01  -5.7494279487849143e-01  -5.1999220528069123e-01  -4.6964434615790868e-01  -4.2320815586685928e-01  -3.8013941987289523e-01  -3.4000425774838300e-01  -3.0245356422374153e-01  -2.6720482665217793e-01  -2.3402907946722926e-01  -2.0274158191461628e-01  -1.7319534994421268e-01  -1.4527708550913596e-01  -1.1890547833364824e-01  -9.4032525558240015e-02  -7.0650063667536858e-02  -4.8807460738050597e-02  -2.8654376606009328e-02  -1.0575800090069381e-02  4.9779637514952525e-03  1.8750875808224158e-02  3.1931873558523158e-02  4.5479620839396141e-02  5.9829869032879568e-02  7.5039498149261460e-02  9.1168862196392197e-02  1.0827544548609191e-01  1.2641056264091227e-01  1.4562002273652019e-01  1.6594487118495663e-01  1.8741909074202162e-01  2.1006659052608631e-01  2.3389864243948325e-01  2.5891198551555461e-01  2.8508792911510278e-01  3.1239269680689818e-01  3.4077897952716646e-01  3.7018843296855419e-01  4.0055470528925347e-01  4.3180654630525983e-01  4.6387062784432948e-01  4.9667384739810022e-01  5.3014503216896136e-01  5.6421606899465893e-01  5.9882254697879600e-01  6.3390402170261539e-01  6.6940400652842902e-01  7.0526978038265564e-01  7.4145208129137286e-01  7.7790473577131891e-01  8.1458425812389157e-01  8.5144944125495048e-01  8.8846095154264182e-01  9.2558093388410478e-01  9.6277262871992564e-01  1.0000000000000000e+00  -2.0000000000000000e+00  -1.6290801913105382e+00  -1.3787982585617742e+00  -1.1937673006540741e+00  -1.0486485194491990e+00  -9.3009197037855529e-01  -8.3032103885450281e-01  -7.4445550708279673e-01  -6.6925325897830157e-01  -6.0246206566564586e-01  -5.4246053945079697e-01  -4.8804724085941681e-01  -4.3831068379631150e-01  -3.9254592876582761e-01  -3.5019924924376344e-01  -3.1083039608486340e-01  -2.7408629419490860e-01  -2.3968242520403221e-01  -2.0738957132690858e-01  -1.7702447567711813e-01  -1.4844356245716628e-01  -1.2153931264666239e-01  -9.6239386081039630e-02  -7.2509498649862142e-02  -5.0364425473521678e-02  -2.9907577844908551e-02  -1.1518317520780103e-02  4.1911940133416026e-03  1.7921574732752993e-02  3.0899254942285771e-02  4.4145637775311421e-02  5.8