<?xml version="1.0"?>
<VTKFile type="UnstructuredGrid"  version="0.1"  >
<UnstructuredGrid>
<Piece  NumberOfPoints="4225" NumberOfCells="8192">
<Points>
<DataArray  type="Float64"  NumberOfComponents="3"  format="ascii">0 0 0  0.015625 0 0  0.03125 0 0  0.046875 0 0  0.0625 0 0  0.078125 0 0  0.09375 0 0  0.109375 0 0  0.125 0 0  0.140625 0 0  0.15625 0 0  0.171875 0 0  0.1875 0 0  0.203125 0 0  0.21875 0 0  0.234375 0 0  0.25 0 0  0.265625 0 0  0.28125 0 0  0.296875 0 0  0.3125 0 0  0.328125 0 0  0.34375 0 0  0.359375 0 0  0.375 0 0  0.390625 0 0  0.40625 0 0  0.421875 0 0  0.4375 0 0  0.453125 0 0  0.46875 0 0  0.484375 0 0  0.5 0 0  0.515625 0 0  0.53125 0 0  0.546875 0 0  0.5625 0 0  0.578125 0 0  0.59375 0 0  0.609375 0 0  0.625 0 0  0.640625 0 0  0.65625 0 0  0.671875 0 0  0.6875 0 0  0.703125 0 0  0.71875 0 0  0.734375 0 0  0.75 0 0  0.765625 0 0  0.78125 0 0  0.796875 0 0  0.8125 0 0  0.828125 0 0  0.84375 0 0  0.859375 0 0  0.875 0 0  0.890625 0 0  0.90625 0 0  0.921875 0 0  0.9375 0 0  0.953125 0 0  0.96875 0 0  0.984375 0 0  1 0 0  0 0.015625 0  0.015625 0.015625 0  0.03125 0.015625 0  0.046875 0.015625 0  0.0625 0.015625 0  0.078125 0.015625 0  0.09375 0.015625 0  0.109375 0.015625 0  0.125 0.015625 0  0.140625 0.015625 0  0.15625 0.015625 0  0.171875 0.015625 0  0.1875 0.015625 0  0.203125 0.015625 0  0.21875 0.015625 0  0.234375 0.015625 0  0.25 0.015625 0  0.265625 0.015625 0  0.28125 0.015625 0  0.296875 0.015625 0  0.3125 0.015625 0  0.328125 0.015625 0  0.34375 0.015625 0  0.359375 0.015625 0  0.375 0.015625 0  0.390625 0.015625 0  0.40625 0.015625 0  0.421875 0.015625 0  0.4375 0.015625 0  0.453125 0.015625 0  0.46875 0.015625 0  0.484375 0.015625 0  0.5 0.015625 0  0.515625 0.015625 0  0.53125 0.015625 0  0.546875 0.015625 0  0.5625 0.015625 0  0.578125 0.015625 0  0.59375 0.015625 0  0.609375 0.015625 0  0.625 0.015625 0  0.640625 0.015625 0  0.65625 0.015625 0  0.671875 0.015625 0  0.6875 0.015625 0  0.703125 0.015625 0  0.71875 0.015625 0  0.734375 0.015625 0  0.75 0.015625 0  0.765625 0.015625 0  0.78125 0.015625 0  0.796875 0.015625 0  0.8125 0.015625 0  0.828125 0.015625 0  0.84375 0.015625 0  0.859375 0.015625 0  0.875 0.015625 0  0.890625 0.015625 0  0.90625 0.015625 0  0.921875 0.015625 0  0.9375 0.015625 0  0.953125 0.015625 0  0.96875 0.015625 0  0.984375 0.015625 0  1 0.015625 0  0 0.03125 0  0.015625 0.03125 0  0.03125 0.03125 0  0.046875 0.03125 0  0.0625 0.03125 0  0.078125 0.03125 0  0.09375 0.03125 0  0.109375 0.03125 0  0.125 0.03125 0  0.140625 0.03125 0  0.15625 0.03125 0  0.171875 0.03125 0  0.1875 0.03125 0  0.203125 0.03125 0  0.21875 0.03125 0  0.234375 0.03125 0  0.25 0.03125 0  0.265625 0.03125 0  0.28125 0.03125 0  0.296875 0.03125 0  0.3125 0.03125 0  0.328125 0.03125 0  0.34375 0.03125 0  0.359375 0.03125 0  0.375 0.03125 0  0.390625 0.03125 0  0.40625 0.03125 0  0.421875 0.03125 0  0.4375 0.03125 0  0.453125 0.03125 0  0.46875 0.03125 0  0.484375 0.03125 0  0.5 0.03125 0  0.515625 0.03125 0  0.53125 0.03125 0  0.546875 0.03125 0  0.5625 0.03125 0  0.578125 0.03125 0  0.59375 0.03125 0  0.609375 0.03125 0  0.625 0.03125 0  0.640625 0.03125 0  0.65625 0.03125 0  0.671875 0.03125 0  0.6875 0.03125 0  0.703125 0.03125 0  0.71875 0.03125 0  0.734375 0.03125 0  0.75 0.03125 0  0.765625 0.03125 0  0.78125 0.03125 0  0.796875 0.03125 0  0.8125 0.03125 0  0.828125 0.03125 0  0.84375 0.03125 0  0.859375 0.03125 0  0.875 0.03125 0  0.890625 0.03125 0  0.90625 0.03125 0  0.921875 0.03125 0  0.9375 0.03125 0  0.953125 0.03125 0  0.96875 0.03125 0  0.984375 0.03125 0  1 0.03125 0  0 0.046875 0  0.015625 0.046875 0  0.03125 0.046875 0  0.046875 0.046875 0  0.0625 0.046875 0  0.078125 0.046875 0  0.09375 0.046875 0  0.109375 0.046875 0  0.125 0.046875 0  0.140625 0.046875 0  0.15625 0.046875 0  0.171875 0.046875 0  0.1875 0.046875 0  0.203125 0.046875 0  0.21875 0.046875 0  0.234375 0.046875 0  0.25 0.046875 0  0.265625 0.046875 0  0.28125 0.046875 0  0.296875 0.046875 0  0.3125 0.046875 0  0.328125 0.046875 0  0.34375 0.046875 0  0.359375 0.046875 0  0.375 0.046875 0  0.390625 0.046875 0  0.40625 0.046875 0  0.421875 0.046875 0  0.4375 0.046875 0  0.453125 0.046875 0  0.46875 0.046875 0  0.484375 0.046875 0  0.5 0.046875 0  0.515625 0.046875 0  0.53125 0.046875 0  0.546875 0.046875 0  0.5625 0.046875 0  0.578125 0.046875 0  0.59375 0.046875 0  0.609375 0.046875 0  0.625 0.046875 0  0.640625 0.046875 0  0.65625 0.046875 0  0.671875 0.046875 0  0.6875 0.046875 0  0.703125 0.046875 0  0.71875 0.046875 0  0.734375 0.046875 0  0.75 0.046875 0  0.765625 0.046875 0  0.78125 0.046875 0  0.796875 0.046875 0  0.8125 0.046875 0  0.828125 0.046875 0  0.84375 0.046875 0  0.859375 0.046875 0  0.875 0.046875 0  0.890625 0.046875 0  0.90625 0.046875 0  0.921875 0.046875 0  0.9375 0.046875 0  0.953125 0.046875 0  0.96875 0.046875 0  0.984375 0.046875 0  1 0.046875 0  0 0.0625 0  0.015625 0.0625 0  0.03125 0.0625 0  0.046875 0.0625 0  0.0625 0.0625 0  0.078125 0.0625 0  0.09375 0.0625 0  0.109375 0.0625 0  0.125 0.0625 0  0.140625 0.0625 0  0.15625 0.0625 0  0.171875 0.0625 0  0.1875 0.0625 0  0.203125 0.0625 0  0.21875 0.0625 0  0.234375 0.0625 0  0.25 0.0625 0  0.265625 0.0625 0  0.28125 0.0625 0  0.296875 0.0625 0  0.3125 0.0625 0  0.328125 0.0625 0  0.34375 0.0625 0  0.359375 0.0625 0  0.375 0.0625 0  0.390625 0.0625 0  0.40625 0.0625 0  0.421875 0.0625 0  0.4375 0.0625 0  0.453125 0.0625 0  0.46875 0.0625 0  0.484375 0.0625 0  0.5 0.0625 0  0.515625 0.0625 0  0.53125 0.0625 0  0.546875 0.0625 0  0.5625 0.0625 0  0.578125 0.0625 0  0.59375 0.0625 0  0.609375 0.0625 0  0.625 0.0625 0  0.640625 0.0625 0  0.65625 0.0625 0  0.671875 0.0625 0  0.6875 0.0625 0  0.703125 0.0625 0  0.71875 0.0625 0  0.734375 0.0625 0  0.75 0.0625 0  0.765625 0.0625 0  0.78125 0.0625 0  0.796875 0.0625 0  0.8125 0.0625 0  0.828125 0.0625 0  0.84375 0.0625 0  0.859375 0.0625 0  0.875 0.0625 0  0.890625 0.0625 0  0.90625 0.0625 0  0.921875 0.0625 0  0.9375 0.0625 0  0.953125 0.0625 0  0.96875 0.0625 0  0.984375 0.0625 0  1 0.0625 0  0 0.078125 0  0.015625 0.078125 0  0.03125 0.078125 0  0.046875 0.078125 0  0.0625 0.078125 0  0.078125 0.078125 0  0.09375 0.078125 0  0.109375 0.078125 0  0.125 0.078125 0  0.140625 0.078125 0  0.15625 0.078125 0  0.171875 0.078125 0  0.1875 0.078125 0  0.203125 0.078125 0  0.21875 0.078125 0  0.234375 0.078125 0  0.25 0.078125 0  0.265625 0.078125 0  0.28125 0.078125 0  0.296875 0.078125 0  0.3125 0.078125 0  0.328125 0.078125 0  0.34375 0.078125 0  0.359375 0.078125 0  0.375 0.078125 0  0.390625 0.078125 0  0.40625 0.078125 0  0.421875 0.078125 0  0.4375 0.078125 0  0.453125 0.078125 0  0.46875 0.078125 0  0.484375 0.078125 0  0.5 0.078125 0  0.515625 0.078125 0  0.53125 0.078125 0  0.546875 0.078125 0  0.5625 0.078125 0  0.578125 0.078125 0  0.59375 0.078125 0  0.609375 0.078125 0  0.625 0.078125 0  0.640625 0.078125 0  0.65625 0.078125 0  0.671875 0.078125 0  0.6875 0.078125 0  0.703125 0.078125 0  0.71875 0.078125 0  0.734375 0.078125 0  0.75 0.078125 0  0.765625 0.078125 0  0.78125 0.078125 0  0.796875 0.078125 0  0.8125 0.078125 0  0.828125 0.078125 0  0.84375 0.078125 0  0.859375 0.078125 0  0.875 0.078125 0  0.890625 0.078125 0  0.90625 0.078125 0  0.921875 0.078125 0  0.9375 0.078125 0  0.953125 0.078125 0  0.96875 0.078125 0  0.984375 0.078125 0  1 0.078125 0  0 0.09375 0  0.015625 0.09375 0  0.03125 0.09375 0  0.046875 0.09375 0  0.0625 0.09375 0  0.078125 0.09375 0  0.09375 0.09375 0  0.109375 0.09375 0  0.125 0.09375 0  0.140625 0.09375 0  0.15625 0.09375 0  0.171875 0.09375 0  0.1875 0.09375 0  0.203125 0.09375 0  0.21875 0.09375 0  0.234375 0.09375 0  0.25 0.09375 0  0.265625 0.09375 0  0.28125 0.09375 0  0.296875 0.09375 0  0.3125 0.09375 0  0.328125 0.09375 0  0.34375 0.09375 0  0.359375 0.09375 0  0.375 0.09375 0  0.390625 0.09375 0  0.40625 0.09375 0  0.421875 0.09375 0  0.4375 0.09375 0  0.453125 0.09375 0  0.46875 0.09375 0  0.484375 0.09375 0  0.5 0.09375 0  0.515625 0.09375 0  0.53125 0.09375 0  0.546875 0.09375 0  0.5625 0.09375 0  0.578125 0.09375 0  0.59375 0.09375 0  0.609375 0.09375 0  0.625 0.09375 0  0.640625 0.09375 0  0.65625 0.09375 0  0.671875 0.09375 0  0.6875 0.09375 0  0.703125 0.09375 0  0.71875 0.09375 0  0.734375 0.09375 0  0.75 0.09375 0  0.765625 0.09375 0  0.78125 0.09375 0  0.796875 0.09375 0  0.8125 0.09375 0  0.828125 0.09375 0  0.84375 0.09375 0  0.859375 0.09375 0  0.875 0.09375 0  0.890625 0.09375 0  0.90625 0.09375 0  0.921875 0.09375 0  0.9375 0.09375 0  0.953125 0.09375 0  0.96875 0.09375 0  0.984375 0.09375 0  1 0.09375 0  0 0.109375 0  0.015625 0.109375 0  0.03125 0.109375 0  0.046875 0.109375 0  0.0625 0.109375 0  0.078125 0.109375 0  0.09375 0.109375 0  0.109375 0.109375 0  0.125 0.109375 0  0.140625 0.109375 0  0.15625 0.109375 0  0.171875 0.109375 0  0.1875 0.109375 0  0.203125 0.109375 0  0.21875 0.109375 0  0.234375 0.109375 0  0.25 0.109375 0  0.265625 0.109375 0  0.28125 0.109375 0  0.296875 0.109375 0  0.3125 0.109375 0  0.328125 0.109375 0  0.34375 0.109375 0  0.359375 0.109375 0  0.375 0.109375 0  0.390625 0.109375 0  0.40625 0.109375 0  0.421875 0.109375 0  0.4375 0.109375 0  0.453125 0.109375 0  0.46875 0.109375 0  0.484375 0.109375 0  0.5 0.109375 0  0.515625 0.109375 0  0.53125 0.109375 0  0.546875 0.109375 0  0.5625 0.109375 0  0.578125 0.109375 0  0.59375 0.109375 0  0.609375 0.109375 0  0.625 0.109375 0  0.640625 0.109375 0  0.65625 0.109375 0  0.671875 0.109375 0  0.6875 0.109375 0  0.703125 0.109375 0  0.71875 0.109375 0  0.734375 0.109375 0  0.75 0.109375 0  0.765625 0.109375 0  0.78125 0.109375 0  0.796875 0.109375 0  0.8125 0.109375 0  0.828125 0.109375 0  0.84375 0.109375 0  0.859375 0.109375 0  0.875 0.109375 0  0.890625 0.109375 0  0.90625 0.109375 0  0.921875 0.109375 0  0.9375 0.109375 0  0.953125 0.109375 0  0.96875 0.109375 0  0.984375 0.109375 0  1 0.109375 0  0 0.125 0  0.015625 0.125 0  0.03125 0.125 0  0.046875 0.125 0  0.0625 0.125 0  0.078125 0.125 0  0.09375 0.125 0  0.109375 0.125 0  0.125 0.12
[...]
<PointData  Scalars="f_6"> 
<DataArray  type="Float64"  Name="f_6"  format="ascii">-2.0000000000000000e+00  -1.9531250000000000e+00  -1.9062500000000000e+00  -1.8593750000000000e+00  -1.8125000000000000e+00  -1.7656250000000000e+00  -1.7187500000000000e+00  -1.6718750000000000e+00  -1.6250000000000000e+00  -1.5781250000000000e+00  -1.5312500000000000e+00  -1.4843750000000000e+00  -1.4375000000000000e+00  -1.3906250000000000e+00  -1.3437500000000000e+00  -1.2968750000000000e+00  -1.2500000000000000e+00  -1.2031250000000000e+00  -1.1562500000000000e+00  -1.1093750000000000e+00  -1.0625000000000000e+00  -1.0156250000000000e+00  -9.6875000000000000e-01  -9.2187500000000000e-01  -8.7500000000000000e-01  -8.2812500000000000e-01  -7.8125000000000000e-01  -7.3437500000000000e-01  -6.8750000000000000e-01  -6.4062500000000000e-01  -5.9375000000000000e-01  -5.4687500000000000e-01  -5.0000000000000000e-01  -4.5312499999999994e-01  -4.0625000000000000e-01  -3.5937500000000000e-01  -3.1250000000000000e-01  -2.6562500000000000e-01  -2.1875000000000000e-01  -1.7187500000000000e-01  -1.2500000000000000e-01  -7.8125000000000000e-02  -3.1250000000000000e-02  1.5625000000000000e-02  6.2500000000000000e-02  1.0937500000000000e-01  1.5625000000000000e-01  2.0312500000000000e-01  2.5000000000000000e-01  2.9687500000000000e-01  3.4375000000000000e-01  3.9062500000000000e-01  4.3750000000000000e-01  4.8437500000000000e-01  5.3125000000000000e-01  5.7812500000000000e-01  6.2500000000000000e-01  6.7187500000000000e-01  7.1875000000000000e-01  7.6562500000000000e-01  8.1250000000000000e-01  8.5937500000000000e-01  9.0625000000000000e-01  9.5312500000000000e-01  1.0000000000000000e+00  -2.0000000000000000e+00  -1.9127550335092116e+00  -1.8324229782456960e+00  -1.7575467044990947e+00  -1.6871752819967671e+00  -1.6206112672535007e+00  -1.5573089284221775e+00  -1.4968251291000865e+00  -1.4387918007158649e+00  -1.3828986563880687e+00  -1.3288813977780549e+00  -1.2765131751320831e+00  -1.2255981316685858e+00  -1.1759663687079143e+00  -1.1274699273546003e+00  -1.0799795257323899e+00  -1.0333818749493793e+00  -9.8757744928171398e-01  -9.4247862020741846e-01  -8.9800808719043956e-01  -8.5409755459471626e-01  -8.1068661621895677e-01  -7.6772181821039176e-01  -7.2515587848830110e-01  -6.8294704655138938e-01  -6.4105859074763027e-01  -5.9945839841013770e-01  -5.5811866552671541e-01  -5.1701563868007216e-01  -4.7612936017779978e-01  -4.3544337433608937e-01  -3.9494448378997726e-01  -3.5462327344281597e-01  -3.1447728157476701e-01  -2.7451825672062774e-01  -2.3478335865089447e-01  -1.9533786226395589e-01  -1.5623377046391318e-01  -1.1743737682234971e-01  -7.8783576902406963e-02  -4.4075405174219456e-02  -1.1471859109052273e-02  2.2122866547568475e-02  5.7651980481221179e-02  9.6340200027093370e-02  1.3817718803670651e-01  1.8144719282630978e-01  2.2549134297351503e-01  2.7001292433607338e-01  3.1485784985681464e-01  3.5993633044028972e-01  4.0519121184433393e-01  4.5058358647914598e-01  4.9608555410335609e-01  5.4167625786307672e-01  5.8733955886544620e-01  6.3306259293930500e-01  6.7883483196098882e-01  7.2464744838448891e-01  7.7049286942627915e-01  8.1636445370663580e-01  8.6225624883266105e-01  9.0816280321551857e-01  9.5407901421222063e-01  1.0000000000000000e+00  -2.0000000000000000e+00  -1.8756121775468153e+00  -1.7666249875076239e+00  -1.6694923178322199e+00  -1.5817540881660554e+00  -1.5016221837354613e+00  -1.4277485150782818e+00  -1.3590882574630199e+00  -1.2948143753141297e+00  -1.2342613550328698e+00  -1.1768865447389336e+00  -1.1222426570783912e+00  -1.0699576576169403e+00  -1.0197197154963149e+00  -9.7126572740835315e-01  -9.2437242701790601e-01  -8.7884940513587329e-01  -8.3453356858054073e-01  -7.9128470080160773e-01  -7.4898187989782883e-01  -7.0752057463154949e-01  -6.6681028583485125e-01  -6.2677263543036621e-01  -5.8733983249646315e-01  -5.4845346820523277e-01  -5.1006360947086793e-01  -4.7212817118312878e-01  -4.3461254235657465e-01  -3.9748941997945153e-01  -3.6073876961682494e-01  -3.2434777184562325e-01  -2.8831061085475246e-01  -2.5262898323519822e-01  -2.1731736375738550e-01  -1.8241852427677790e-01  -1.4803617894918961e-01  -1.1438119140503417e-01  -8.1776704986418092e-02  -5.0463117622800237e-02  -2.2143743266618828e-02  3.9068245293814932e-03  3.0560246559094732e-02  5.9382341482464927e-02  9.1308512783631723e-02  1.2703163159044573e-01  1.6554635929342221e-01  2.0587024029501738e-01  2.4738025473167696e-01  2.8970250451396390e-01  3.3260714465089580e-01  3.7594626006001020e-01  4.1961993045790019e-01  4.6355757996889413e-01  5.0770737207120242e-01  5.5202991848350469e-01  5.9649438465940297e-01  6.4107598093078511e-01  6.8575428652016135e-01  7.3051209215068746e-01  7.7533457561399188e-01  8.2020869656760320e-01  8.6512273840848963e-01  9.1006594981719180e-01  9.5502825363336441e-01  1.0000000000000000e+00  -2.0000000000000000e+00  -1.8410907035336119e+00  -1.7074542972947655e+00  -1.5924712886450281e+00  -1.4916912234687909e+00  -1.4019979428769700e+00  -1.3211339847468369e+00  -1.2474173479910409e+00  -1.1795654149560888e+00  -1.1165811208742422e+00  -1.0576767828661251e+00  -1.0022215812456212e+00  -9.4970440056890471e-01  -8.9970694372841542e-01  -8.5188389765535688e-01  -8.0594805187081253e-01  -7.6165896806072553e-01  -7.1881424376619152e-01  -6.7724270459733371e-01  -6.3679905460023789e-01  -5.9735964814523168e-01  -5.5881914048884873e-01  -5.2108784204566583e-01  -4.8408965338399079e-01  -4.4776050177872340e-01  -4.1204724063792547e-01  -3.7690700781868436e-01  -3.4230705458600669e-01  -3.0822504028401521e-01  -2.7464973546751448e-01  -2.4158189557272883e-01  -2.0903449017949610e-01  -1.7703244234767712e-01  -1.4561743818261161e-01  -1.1487239462533354e-01  -8.4987405513999442e-02  -5.6330461577281318e-02  -3.0211979334230834e-02  -6.5400921157632253e-03  1.5772892149983720e-02  3.8046877588554365e-02  6.2479584760726237e-02  9.0318638983170177e-02  1.2116809758039508e-01  1.5493145425763560e-01  1.9110637725151927e-01  2.2910715432866063e-01  2.6845693114421160e-01  3.0880969433720945e-01  3.4992196417279442e-01  3.9162163469095518e-01  4.3378466995836251e-01  4.7631943086732786e-01  5.1915643572905457e-01  5.6224165934033665e-01  6.0553208035787609e-01  6.4899265960427099e-01  6.9259424103818445e-01  7.3631205808410760e-01  7.8012464431139827e-01  8.2401301854129549e-01  8.6796005841650314e-01  9.1195000401139481e-01  9.5596805050404532e-01  1.0000000000000000e+00  -2.0000000000000000e+00  -1.8088712242526197e+00  -1.6539187509919551e+00  -1.5244936285651021e+00  -1.4137900387118250e+00  -1.3172433726557704e+00  -1.2316700682595909e+00  -1.1547771683200456e+00  -1.0848684024722597e+00  -1.0206604331815619e+00  -9.6116372176349552e-01  -9.0560282077792242e-01  -8.5336156446294642e-01  -8.0394446664418295e-01  -7.5694895638685422e-01  -7.1204503690287713e-01  -6.6896014062348708e-01  -6.2746769488435550e-01  -5.8737838768549933e-01  -5.4853343447338088e-01  -5.1079935570519741e-01  -4.7406391813113735e-01  -4.3823299382161945e-01  -4.0322816661526117e-01  -3.6898498037713556e-01  -3.3545179117983248e-01  -3.0258926222689370e-01  -2.7037060934153090e-01  -2.3878273600342884e-01  -2.0782839399562505e-01  -1.7752925024206653e-01  -1.4792785431032049e-01  -1.1908738060364674e-01  -9.1096858671500913e-02  -6.4108445779525222e-02  -3.8414215502079546e-02  -1.5639087483525826e-02  4.8437975359625863e-03  2.4667404826810756e-02  4.4802686988537128e-02  6.6516613818104683e-02  9.0992575912085719e-02  1.1824453210909447e-01  1.4811378429714281e-01  1.8041971060818232e-01  2.1484054112635864e-01  2.5099506862389381e-01  2.8853062117929940e-01  3.2715737751786816e-01  3.6664938301211708e-01  4.0683364457265375e-01  4.4757768381726698e-01  4.8877903781300014e-01  5.3035728063735121e-01  5.7224820279091093e-01  6.1439961782749375e-01  6.5676833609023799e-01  6.9931795994419788e-01  7.4201725483616021e-01  7.8483892500619845e-01  8.2775867486967702e-01  8.7075447270483231e-01  9.1380595730783898e-01  9.5689394437142172e-01  1.0000000000000000e+00  -2.0000000000000000e+00  -1.7787497607351666e+00  -1.6052751776111005e+00  -1.4640707432934776e+00  -1.3457318119582724e+00  -1.2442087204790580e+00  -1.1554255997791734e+00  -1.0765317091234941e+00  -1.0054707834954708e+00  -9.4072094955842489e-01  -8.8113110904238434e-01  -8.2581436527807772e-01  -7.7407649048146632e-01  -7.2536664187710786e-01  -6.7924262127745205e-01  -6.3534589053326007e-01  -5.9338328603409718e-01  -5.5311343323893458e-01  -5.1433652640994076e-01  -4.7688656620828868e-01  -4.4062542936998522e-01  -4.0543833428487186e-01  -3.7123039710827210e-01  -3.3792406754888682e-01  -3.0545731297334416e-01  -2.7378251287932859e-01  -2.4286616376250009e-01  -2.1268967679618211e-01  -1.8325174412175421e-01  -1.5457309054322824e-01  -1.2670426118942560e-01  -9.9734016971912656e-02  -7.3792015623193236e-02  -4.9057335025076268e-02  -2.5933106447371599e-02  -5.3295412580070898e-03  1.3188020616374302e-02  3.1106214142828936e-02  4.9754988154728980e-02  6.9980449007271281e-02  9.2224314783241543e-02  1.1672957296041749e-01  1.4355312924397920e-01  1.7262279689089938e-01  2.0379306275159215e-01  2.3684100802183924e-01  2.7150195786125658e-01  3.0751310743122379e-01  3.4463981154284684e-01  3.8268454578515188e-01  4.2148587677027571e-01  4.6091338292505113e-01  5.0086175593005455e-01  5.4124544621643933e-01  5.8199425335846222e-01  6.2304985207094832e-01  6.6436310698498924e-01  7.0589200781220895e-01  7.4760007631013692e-01  7.8945512600755852e-01  8.3142828322638185e-01  8.7349320022531074e-01  9.1562540814370708e-01  9.5780176967380271e-01  1.0000000000000000e+00  -2.0000000000000000e+00  -1.7505759095154581e+00  -1.5609402836302877e+00  -1.4100580457543066e+00  -1.2857882381817023e+00  -1.1806163748093708e+00  -1.0896340849233677e+00  -1.0094948201830756e+00  -9.3783577316418976e-01  -8.7293969982387731e-01  -8.1352784920168963e-01  -7.5862820381747054e-01  -7.0748884004030832e-01  -6.5951931614653303e-01  -6.1425002847603949e-01  -5.7130341266816509e-01  -5.3037315212919434e-01  -4.9120892586718096e-01  -4.5360507329201372e-01  -4.1739208937250477e-01  -3.8243021164195151e-01  -3.4860459201971161e-01  -3.1582170321722086e-01  -2.8400673719952912e-01  -2.5310183531373170e-01  -2.2306509317724160e-01  -1.9387048881292276e-01  -1.6550926091715978e-01  -1.3799385150063159e-01  -1.1136737030096727e-01  -8.5721854017580187e-02  -6.1225500195068831e-02  -3.8109728858784032e-02  -1.6903033155950865e-02  2.0277581862406906e-03  1.9271958965255402e-02  3.5934517609278349e-02  5.3357113531512922e-02  7.2424337573171169e-02  9.3139806102577549e-02  1.1567062334717275e-01  1.4014827190236348e-01  1.6661561501550537e-01  1.9503121127088333e-01  2.2528873548544770e-01  2.5722847034814961e-01  2.9065864736806951e-01  3.2538003914149266e-01  3.6120421543714376e-01  3.9796311181536814e-01  4.3551193379824577e-01  4.7372821518260705e-01  5.1250915676572784e-01  5.5176849493988944e-01  5.9143351235554997e-01  6.3144243011284884e-01  6.7174223196656191e-01  7.1228688800951201e-01  7.5303591658461921e-01  7.9395321948751707e-01  8.3500613180298067e-01  8.7616463682632117e-01  9.1740070536787566e-01  9.5868772618008191e-01  1.0000000000000000e+00  -2.0000000000000000e+00  -1.7242274472911863e+00  -1.5204402540128745e+00  -1.3615545514297562e+00  -1.2326402499044806e+00  -1.1247745709282362e+00  -1.0322878041516552e+00  -9.5139938425282156e-01  -8.7948844014522920e-01  -8.1467899698024127e-01  -7.5559196210847535e-01  -7.0119048254029870e-01  -6.5068002679042281e-01  -6.0344181992766477e-01  -5.5898730801924890e-01  -5.1692628398760565e-01  -4.7694412965951960e-01  -4.3878529299269797e-01  -4.0224113151372043e-01  -3.6714088633436293e-01  -3.3334495860112939e-01  -3.0073992988929993e-01  -2.6923495037325201e-01  -2.3875923860798462e-01  -2.0926050762747594e-01  -1.8070421041610218e-01  -1.5307373243123529e-01  -1.2637228287325539e-01  -1.0062924895469336e-01  -7.5917102826087463e-02  -5.2388054777985145e-02  -3.0333738569539470e-02  -1.0497083187172742e-02  7.1617379978476418e-03  2.3460816315866068e-02  3.9387513738004545e-02  5.5974152962150768e-02  7.3963384800773246e-02  9.3445442503865203e-02  1.1448381448269505e-01  1.3717010060050844e-01  1.6157727628635837e-01  1.8772984764479544e-01  2.1559769769168097e-01  2.4510219757116564e-01  2.7612549051724206e-01  3.0852412212137920e-01  3.4214418632953408e-01  3.7683389924886751e-01  4.1245175224093128e-01  4.4887053142473221e-01  4.8597838724140363e-01  5.2367816101036047e-01  5.6188586442184074e-01  6.0052887101099939e-01  6.3954412405833561e-01  6.7887650275889733e-01  7.1847739567465840e-01  7.5830348253131108e-01  7.9831570355490977e-01  8.3847838767170246e-01  8.7875850990911775e-01  9.1912505032139269e-01  9.5954842967864917e-01  1.0000000000000000e+00  -2.0000000000000000e+00  -1.6995987631437335e+00  -1.4833806393402504e+00  -1.3178370841936851e+00  -1.1852603458808251e+00  -1.0753973721301664e+00  -9.8189109195542734e-01  -9.0058439197851925e-01  -8.2864039468945738e-01  -7.6405457427996049e-01  -7.0536905896533530e-01  -6.5149760039952076e-01  -6.0161417285319485e-01  -5.5507971976485926e-01  -5.1139261166880978e-01  -4.7015431755208131e-01  -4.3104511874960294e-01  -3.9380662800986344e-01  -3.5822903770876374e-01  -3.2414174065833745e-01  -2.9140642706182224e-01  -2.5991206714274223e-01  -2.2957140282090124e-01  -2.0031871925080783e-01  -1.7210872916968820e-01  -1.4491643062599177e-01  -1.1873802165310376e-01  -9.3593839266633852e-02  -6.9537685213576478e-02  -4.6680928508659777e-02  -2.5236949506990517e-02  -6.2561325866209976e-03  1.0478461414257867e-02  2.6027822244405044e-02  4.1402610537768725e-02  5.7425520735787369e-02  7.4611195700546931e-02  9.3076830205564037e-02  1.1291023315882134e-01  1.3417990872382909e-01  1.5694868828580760e-01  1.8126088499776616e-01  2.0712880158563715e-01  2.3452753427987943e-01  2.6339686659029193e-01  2.9364717202827390e-01  3.2516816427067130e-01  3.5783868480639625e-01  3.9153544298786130e-01  4.2613946647475731e-01  4.6154005241834822e-01  4.9763664134791480e-01  5.3433923561246943e-01  5.7156793072611400e-01  6.0925198320827156e-01  6.4732869235059798e-01  6.8574225933603339e-01  7.2444270939891320e-01  7.6338491431105715e-01  8.0252772452910837e-01  8.4183320541980200e-01  8.8126596481705477e-01  9.2079255632992763e-01  9.6038094221312320e-01  1.0000000000000000e+00  -2.0000000000000000e+00  -1.6765951667861769e+00  -1.4494272218386506e+00  -1.2783157754305414e+00  -1.1428339326976400e+00  -1.0314876235429857e+00  -9.3730442416514093e-01  -8.5580220349170166e-01  -7.8396373008195930e-01  -7.1968041954791240e-01  -6.6143249502785972e-01  -6.0809601738503216e-01  -5.5882165231361058e-01  -5.1295583569565495e-01  -4.6998797095748163e-01  -4.2951415271338667e-01  -3.9121170066062366e-01  -3.5482096308361444e-01  -3.2013214245889426e-01  -2.8697569046746324e-01  -2.5521532628806037e-01  -2.2474307312290945e-01  -1.9547596594466951e-01  -1.6735430791108558e-01  -1.4034146905429079e-01  -1.1442537940979779e-01  -8.9621993802229558e-02  -6.5980616816253210e-02  -4.3597234416017802e-02  -2.2649157722638605e-02  -3.9844347971430870e-03  1.2261398282591155e-02  2.7235253531352227e-02  4.2142763224158664e-02  5.7727475160778821e-02  7.4300762966829290e-02  9.1968278898685515e-02  1.1082250716211463e-01  1.3093875120202705e-01  1.5237689896799253e-01  1.7518385882112675e-01  1.9938877383326148e-01  2.2499693942010759e-01  2.5198677125190766e-01  2.8031056248184882e-01  3.0989816673489046e-01  3.4066267812663581e-01  3.7250694563751907e-01  4.0532972142142409e-01  4.3903061825188866e-01  4.7351357042598857e-01  5.0868889011943819e-01  5.4447420936548852e-01  5.8079463966187417e-01  6.1758243874537511e-01  6.5477640279975213e-01  6.9232113283572527e-01  7.3016626827390396e-01  7.6826574078489607e-01  8.0657707483066465e-01  8.4506074466134262e-01  8.8367958760937160e-01  9.2239826796813984e-01  9.6118278284391601e-01  1.0000000000000000e+00  -2.0000000000000000e+00  -1.6551299280018017e+00  -1.4182931419815874e+00  -1.2425030226115075e+00  -1.1047053203619945e+00  -9.9225858210306883e-01  -8.9764255906090529e-01  -8.1609535521772003e-01  -7.4444923644849981e-01  -6.8051129803900789e-01  -6.2271302238560899e-01  -5.6990165224602818e-01  -5.2121058923500274e-01  -4.7597592230888813e-01  -4.3368098080632517e-01  -3.9391851808592965e-01  -3.5636433939228912e-01  -3.2075857745851610e-01  -2.8689222784492807e-01  -2.5459741681860448e-01  -2.2374042236639885e-01  -1.9421684131009226e-01  -1.6594860652544627e-01  -1.3888296650793663e-01  -1.1299393366628802e-01  -8.8287406464393953e-02  -6.4810967624739646e-02  -4.2663317061627438e-02  -2.2008828047963273e-02  -3.4219680987784039e-03  1.2734462434335807e-02  2.7378840861005060e-02  4.1829586169576417e-02  5.7006115543195013e-02  7.3063763914358537e-02  9.0081777072065508e-02  1.0813864976525124e-01  1.2730616834218197e-01  1.4764536551917964e-01  1.6920507712498722e-01  1.9202107419744549e-01  2.1611341209404583e-01  2.4148341100962367e-01  2.6811204882579459e-01  2.9596044535030519e-01  3.2497225430280385e-01  3.5507743586346235e-01  3.8619669819561980e-01  4.1824587880842728e-01  4.5113971468538505e-01  4.8479472091427900e-01  5.1913113933836097e-01  5.5407407206817216e-01  5.8955397981051927e-01  6.2550672931160245e-01  6.6187334726730984e-01  6.9859960093321261e-01  7.3563549007608120e-01  7.7293470572395773e-01  8.1045408934731200e-01  8.4815311078553202e-01  8.8599337299094871e-01  9.2393814508934458e-01  9.6195192119440065e-01  1.0000000000000000e+00  -2.0000000000000000e+00  -1.6351226701160431e+00  -1.3897298016850892e+00  -1.2099912265797932e+00  -1.0703397336362939e+00  -9.5708006253332623e-01  -8.6220604460766637e-01  -7.8071527397450713e-01  -7.0931434735404608e-01  -6.4574190457738878e-01  -5.8839095786515538e-01  -5.3608667164552415e-01  -4.8794966310361343e-01  -4.4330868724358868e-01  -4.0164304948049362e-01  -3.6254357523854563e-01  -3.2568554715662834e-01  -2.9080959896178027e-01  -2.5770806417184866e-01  -2.2621519754316255e-01  -1.9620027467571177e-01  -1.6756297410165266e-01  -1.4023078929631472e-01  -1.1415903413441135e-01  -8.9334830809035481e-02  -6.5787746989866502e-02  -4.3612474553021759e-02  -2.2980032096759247e-02  -4.2872031186404411e-03  1.1989795529564471e-02  2.6573789338666401e-02  4.0708417634433051e-02  5.5419294956351069e-02  7.0988348864686496e-02  8.7439687881394806e-02  1.0482393164182294e-01  1.2319837474807198e-01  1.4261815092218244e-01  1.6313146540752232e-01  1.8477696981533120e-01  2.0758194874962221e-01  2.3156038933585277e-01  2.5671124369854659e-01  2.8301756769134184e-01  3.1044691579077333e-01  3.3895296926255752e-01  3.6847811282878989e-01  3.9895653247307050e-01  4.3031738093128025e-01  4.6248764076694515e-01  4.9539445920738134e-01  5.2896687425155486e-01  5.6313695975831979e-01  5.9784047820042874e-01  6.3301715142320536e-01  6.6861065602467173e-01  7.0456843355373422e-01  7.4084138537325050e-01  7.7738350268754153e-01  8.1415146604909305e-01  8.5110423614252473e-01  8.8820264847954622e-01  9.2540901820388921e-01  9.6268675684434224e-01  1.0000000000000000e+00  -2.0000000000000000e+00  -1.6164984639026674e+00  -1.3635201712946414e+00  -1.1804364344048510e+00  -1.0392960019893411e+00  -9.2544056719831069e-01  -8.3043398233230137e-01  -7.4906713980304818e-01  -6.7794156582445519e-01  -6.1474019450636253e-01  -5.5782559483566863e-01  -5.0600598808188801e-01  -4.5839253984998496e-01  -4.1430886283409069e-01  -3.7323169884845792e-01  -3.3475093464024408e-01  -2.9854201861859447e-01  -2.6434658903233887e-01  -2.3195872080215887e-01  -2.0121517236368100e-01  -1.7198864921881538e-01  -1.4418354635815137e-01  -1.1773395507371283e-01  -9.2605329162305253e-02  -6.8801351178805897e-02  -4.6378923072749816e-02  -2.5477407721084221e-02  -6.4508958993260519e-03  1.0085999084818394e-02  2.4745069618466859e-02  3.8711184099501861e-02 