<?xml version="1.0"?>
<VTKFile type="UnstructuredGrid"  version="0.1"  >
<UnstructuredGrid>
<Piece  NumberOfPoints="4225" NumberOfCells="8192">
<Points>
<DataArray  type="Float64"  NumberOfComponents="3"  format="ascii">0 0 0  0.015625 0 0  0.03125 0 0  0.046875 0 0  0.0625 0 0  0.078125 0 0  0.09375 0 0  0.109375 0 0  0.125 0 0  0.140625 0 0  0.15625 0 0  0.171875 0 0  0.1875 0 0  0.203125 0 0  0.21875 0 0  0.234375 0 0  0.25 0 0  0.265625 0 0  0.28125 0 0  0.296875 0 0  0.3125 0 0  0.328125 0 0  0.34375 0 0  0.359375 0 0  0.375 0 0  0.390625 0 0  0.40625 0 0  0.421875 0 0  0.4375 0 0  0.453125 0 0  0.46875 0 0  0.484375 0 0  0.5 0 0  0.515625 0 0  0.53125 0 0  0.546875 0 0  0.5625 0 0  0.578125 0 0  0.59375 0 0  0.609375 0 0  0.625 0 0  0.640625 0 0  0.65625 0 0  0.671875 0 0  0.6875 0 0  0.703125 0 0  0.71875 0 0  0.734375 0 0  0.75 0 0  0.765625 0 0  0.78125 0 0  0.796875 0 0  0.8125 0 0  0.828125 0 0  0.84375 0 0  0.859375 0 0  0.875 0 0  0.890625 0 0  0.90625 0 0  0.921875 0 0  0.9375 0 0  0.953125 0 0  0.96875 0 0  0.984375 0 0  1 0 0  0 0.015625 0  0.015625 0.015625 0  0.03125 0.015625 0  0.046875 0.015625 0  0.0625 0.015625 0  0.078125 0.015625 0  0.09375 0.015625 0  0.109375 0.015625 0  0.125 0.015625 0  0.140625 0.015625 0  0.15625 0.015625 0  0.171875 0.015625 0  0.1875 0.015625 0  0.203125 0.015625 0  0.21875 0.015625 0  0.234375 0.015625 0  0.25 0.015625 0  0.265625 0.015625 0  0.28125 0.015625 0  0.296875 0.015625 0  0.3125 0.015625 0  0.328125 0.015625 0  0.34375 0.015625 0  0.359375 0.015625 0  0.375 0.015625 0  0.390625 0.015625 0  0.40625 0.015625 0  0.421875 0.015625 0  0.4375 0.015625 0  0.453125 0.015625 0  0.46875 0.015625 0  0.484375 0.015625 0  0.5 0.015625 0  0.515625 0.015625 0  0.53125 0.015625 0  0.546875 0.015625 0  0.5625 0.015625 0  0.578125 0.015625 0  0.59375 0.015625 0  0.609375 0.015625 0  0.625 0.015625 0  0.640625 0.015625 0  0.65625 0.015625 0  0.671875 0.015625 0  0.6875 0.015625 0  0.703125 0.015625 0  0.71875 0.015625 0  0.734375 0.015625 0  0.75 0.015625 0  0.765625 0.015625 0  0.78125 0.015625 0  0.796875 0.015625 0  0.8125 0.015625 0  0.828125 0.015625 0  0.84375 0.015625 0  0.859375 0.015625 0  0.875 0.015625 0  0.890625 0.015625 0  0.90625 0.015625 0  0.921875 0.015625 0  0.9375 0.015625 0  0.953125 0.015625 0  0.96875 0.015625 0  0.984375 0.015625 0  1 0.015625 0  0 0.03125 0  0.015625 0.03125 0  0.03125 0.03125 0  0.046875 0.03125 0  0.0625 0.03125 0  0.078125 0.03125 0  0.09375 0.03125 0  0.109375 0.03125 0  0.125 0.03125 0  0.140625 0.03125 0  0.15625 0.03125 0  0.171875 0.03125 0  0.1875 0.03125 0  0.203125 0.03125 0  0.21875 0.03125 0  0.234375 0.03125 0  0.25 0.03125 0  0.265625 0.03125 0  0.28125 0.03125 0  0.296875 0.03125 0  0.3125 0.03125 0  0.328125 0.03125 0  0.34375 0.03125 0  0.359375 0.03125 0  0.375 0.03125 0  0.390625 0.03125 0  0.40625 0.03125 0  0.421875 0.03125 0  0.4375 0.03125 0  0.453125 0.03125 0  0.46875 0.03125 0  0.484375 0.03125 0  0.5 0.03125 0  0.515625 0.03125 0  0.53125 0.03125 0  0.546875 0.03125 0  0.5625 0.03125 0  0.578125 0.03125 0  0.59375 0.03125 0  0.609375 0.03125 0  0.625 0.03125 0  0.640625 0.03125 0  0.65625 0.03125 0  0.671875 0.03125 0  0.6875 0.03125 0  0.703125 0.03125 0  0.71875 0.03125 0  0.734375 0.03125 0  0.75 0.03125 0  0.765625 0.03125 0  0.78125 0.03125 0  0.796875 0.03125 0  0.8125 0.03125 0  0.828125 0.03125 0  0.84375 0.03125 0  0.859375 0.03125 0  0.875 0.03125 0  0.890625 0.03125 0  0.90625 0.03125 0  0.921875 0.03125 0  0.9375 0.03125 0  0.953125 0.03125 0  0.96875 0.03125 0  0.984375 0.03125 0  1 0.03125 0  0 0.046875 0  0.015625 0.046875 0  0.03125 0.046875 0  0.046875 0.046875 0  0.0625 0.046875 0  0.078125 0.046875 0  0.09375 0.046875 0  0.109375 0.046875 0  0.125 0.046875 0  0.140625 0.046875 0  0.15625 0.046875 0  0.171875 0.046875 0  0.1875 0.046875 0  0.203125 0.046875 0  0.21875 0.046875 0  0.234375 0.046875 0  0.25 0.046875 0  0.265625 0.046875 0  0.28125 0.046875 0  0.296875 0.046875 0  0.3125 0.046875 0  0.328125 0.046875 0  0.34375 0.046875 0  0.359375 0.046875 0  0.375 0.046875 0  0.390625 0.046875 0  0.40625 0.046875 0  0.421875 0.046875 0  0.4375 0.046875 0  0.453125 0.046875 0  0.46875 0.046875 0  0.484375 0.046875 0  0.5 0.046875 0  0.515625 0.046875 0  0.53125 0.046875 0  0.546875 0.046875 0  0.5625 0.046875 0  0.578125 0.046875 0  0.59375 0.046875 0  0.609375 0.046875 0  0.625 0.046875 0  0.640625 0.046875 0  0.65625 0.046875 0  0.671875 0.046875 0  0.6875 0.046875 0  0.703125 0.046875 0  0.71875 0.046875 0  0.734375 0.046875 0  0.75 0.046875 0  0.765625 0.046875 0  0.78125 0.046875 0  0.796875 0.046875 0  0.8125 0.046875 0  0.828125 0.046875 0  0.84375 0.046875 0  0.859375 0.046875 0  0.875 0.046875 0  0.890625 0.046875 0  0.90625 0.046875 0  0.921875 0.046875 0  0.9375 0.046875 0  0.953125 0.046875 0  0.96875 0.046875 0  0.984375 0.046875 0  1 0.046875 0  0 0.0625 0  0.015625 0.0625 0  0.03125 0.0625 0  0.046875 0.0625 0  0.0625 0.0625 0  0.078125 0.0625 0  0.09375 0.0625 0  0.109375 0.0625 0  0.125 0.0625 0  0.140625 0.0625 0  0.15625 0.0625 0  0.171875 0.0625 0  0.1875 0.0625 0  0.203125 0.0625 0  0.21875 0.0625 0  0.234375 0.0625 0  0.25 0.0625 0  0.265625 0.0625 0  0.28125 0.0625 0  0.296875 0.0625 0  0.3125 0.0625 0  0.328125 0.0625 0  0.34375 0.0625 0  0.359375 0.0625 0  0.375 0.0625 0  0.390625 0.0625 0  0.40625 0.0625 0  0.421875 0.0625 0  0.4375 0.0625 0  0.453125 0.0625 0  0.46875 0.0625 0  0.484375 0.0625 0  0.5 0.0625 0  0.515625 0.0625 0  0.53125 0.0625 0  0.546875 0.0625 0  0.5625 0.0625 0  0.578125 0.0625 0  0.59375 0.0625 0  0.609375 0.0625 0  0.625 0.0625 0  0.640625 0.0625 0  0.65625 0.0625 0  0.671875 0.0625 0  0.6875 0.0625 0  0.703125 0.0625 0  0.71875 0.0625 0  0.734375 0.0625 0  0.75 0.0625 0  0.765625 0.0625 0  0.78125 0.0625 0  0.796875 0.0625 0  0.8125 0.0625 0  0.828125 0.0625 0  0.84375 0.0625 0  0.859375 0.0625 0  0.875 0.0625 0  0.890625 0.0625 0  0.90625 0.0625 0  0.921875 0.0625 0  0.9375 0.0625 0  0.953125 0.0625 0  0.96875 0.0625 0  0.984375 0.0625 0  1 0.0625 0  0 0.078125 0  0.015625 0.078125 0  0.03125 0.078125 0  0.046875 0.078125 0  0.0625 0.078125 0  0.078125 0.078125 0  0.09375 0.078125 0  0.109375 0.078125 0  0.125 0.078125 0  0.140625 0.078125 0  0.15625 0.078125 0  0.171875 0.078125 0  0.1875 0.078125 0  0.203125 0.078125 0  0.21875 0.078125 0  0.234375 0.078125 0  0.25 0.078125 0  0.265625 0.078125 0  0.28125 0.078125 0  0.296875 0.078125 0  0.3125 0.078125 0  0.328125 0.078125 0  0.34375 0.078125 0  0.359375 0.078125 0  0.375 0.078125 0  0.390625 0.078125 0  0.40625 0.078125 0  0.421875 0.078125 0  0.4375 0.078125 0  0.453125 0.078125 0  0.46875 0.078125 0  0.484375 0.078125 0  0.5 0.078125 0  0.515625 0.078125 0  0.53125 0.078125 0  0.546875 0.078125 0  0.5625 0.078125 0  0.578125 0.078125 0  0.59375 0.078125 0  0.609375 0.078125 0  0.625 0.078125 0  0.640625 0.078125 0  0.65625 0.078125 0  0.671875 0.078125 0  0.6875 0.078125 0  0.703125 0.078125 0  0.71875 0.078125 0  0.734375 0.078125 0  0.75 0.078125 0  0.765625 0.078125 0  0.78125 0.078125 0  0.796875 0.078125 0  0.8125 0.078125 0  0.828125 0.078125 0  0.84375 0.078125 0  0.859375 0.078125 0  0.875 0.078125 0  0.890625 0.078125 0  0.90625 0.078125 0  0.921875 0.078125 0  0.9375 0.078125 0  0.953125 0.078125 0  0.96875 0.078125 0  0.984375 0.078125 0  1 0.078125 0  0 0.09375 0  0.015625 0.09375 0  0.03125 0.09375 0  0.046875 0.09375 0  0.0625 0.09375 0  0.078125 0.09375 0  0.09375 0.09375 0  0.109375 0.09375 0  0.125 0.09375 0  0.140625 0.09375 0  0.15625 0.09375 0  0.171875 0.09375 0  0.1875 0.09375 0  0.203125 0.09375 0  0.21875 0.09375 0  0.234375 0.09375 0  0.25 0.09375 0  0.265625 0.09375 0  0.28125 0.09375 0  0.296875 0.09375 0  0.3125 0.09375 0  0.328125 0.09375 0  0.34375 0.09375 0  0.359375 0.09375 0  0.375 0.09375 0  0.390625 0.09375 0  0.40625 0.09375 0  0.421875 0.09375 0  0.4375 0.09375 0  0.453125 0.09375 0  0.46875 0.09375 0  0.484375 0.09375 0  0.5 0.09375 0  0.515625 0.09375 0  0.53125 0.09375 0  0.546875 0.09375 0  0.5625 0.09375 0  0.578125 0.09375 0  0.59375 0.09375 0  0.609375 0.09375 0  0.625 0.09375 0  0.640625 0.09375 0  0.65625 0.09375 0  0.671875 0.09375 0  0.6875 0.09375 0  0.703125 0.09375 0  0.71875 0.09375 0  0.734375 0.09375 0  0.75 0.09375 0  0.765625 0.09375 0  0.78125 0.09375 0  0.796875 0.09375 0  0.8125 0.09375 0  0.828125 0.09375 0  0.84375 0.09375 0  0.859375 0.09375 0  0.875 0.09375 0  0.890625 0.09375 0  0.90625 0.09375 0  0.921875 0.09375 0  0.9375 0.09375 0  0.953125 0.09375 0  0.96875 0.09375 0  0.984375 0.09375 0  1 0.09375 0  0 0.109375 0  0.015625 0.109375 0  0.03125 0.109375 0  0.046875 0.109375 0  0.0625 0.109375 0  0.078125 0.109375 0  0.09375 0.109375 0  0.109375 0.109375 0  0.125 0.109375 0  0.140625 0.109375 0  0.15625 0.109375 0  0.171875 0.109375 0  0.1875 0.109375 0  0.203125 0.109375 0  0.21875 0.109375 0  0.234375 0.109375 0  0.25 0.109375 0  0.265625 0.109375 0  0.28125 0.109375 0  0.296875 0.109375 0  0.3125 0.109375 0  0.328125 0.109375 0  0.34375 0.109375 0  0.359375 0.109375 0  0.375 0.109375 0  0.390625 0.109375 0  0.40625 0.109375 0  0.421875 0.109375 0  0.4375 0.109375 0  0.453125 0.109375 0  0.46875 0.109375 0  0.484375 0.109375 0  0.5 0.109375 0  0.515625 0.109375 0  0.53125 0.109375 0  0.546875 0.109375 0  0.5625 0.109375 0  0.578125 0.109375 0  0.59375 0.109375 0  0.609375 0.109375 0  0.625 0.109375 0  0.640625 0.109375 0  0.65625 0.109375 0  0.671875 0.109375 0  0.6875 0.109375 0  0.703125 0.109375 0  0.71875 0.109375 0  0.734375 0.109375 0  0.75 0.109375 0  0.765625 0.109375 0  0.78125 0.109375 0  0.796875 0.109375 0  0.8125 0.109375 0  0.828125 0.109375 0  0.84375 0.109375 0  0.859375 0.109375 0  0.875 0.109375 0  0.890625 0.109375 0  0.90625 0.109375 0  0.921875 0.109375 0  0.9375 0.109375 0  0.953125 0.109375 0  0.96875 0.109375 0  0.984375 0.109375 0  1 0.109375 0  0 0.125 0  0.015625 0.125 0  0.03125 0.125 0  0.046875 0.125 0  0.0625 0.125 0  0.078125 0.125 0  0.09375 0.125 0  0.109375 0.125 0  0.125 0.12
[...]
<PointData  Scalars="f_6"> 
<DataArray  type="Float64"  Name="f_6"  format="ascii">-2.0000000000000000e+00  -1.9531250000000000e+00  -1.9062500000000000e+00  -1.8593750000000000e+00  -1.8125000000000000e+00  -1.7656250000000000e+00  -1.7187500000000000e+00  -1.6718750000000000e+00  -1.6250000000000000e+00  -1.5781250000000000e+00  -1.5312500000000000e+00  -1.4843750000000000e+00  -1.4375000000000000e+00  -1.3906250000000000e+00  -1.3437500000000000e+00  -1.2968750000000000e+00  -1.2500000000000000e+00  -1.2031250000000000e+00  -1.1562500000000000e+00  -1.1093750000000000e+00  -1.0625000000000000e+00  -1.0156250000000000e+00  -9.6875000000000000e-01  -9.2187500000000000e-01  -8.7500000000000000e-01  -8.2812500000000000e-01  -7.8125000000000000e-01  -7.3437500000000000e-01  -6.8750000000000000e-01  -6.4062500000000000e-01  -5.9375000000000000e-01  -5.4687500000000000e-01  -5.0000000000000000e-01  -4.5312499999999994e-01  -4.0625000000000000e-01  -3.5937500000000000e-01  -3.1250000000000000e-01  -2.6562500000000000e-01  -2.1875000000000000e-01  -1.7187500000000000e-01  -1.2500000000000000e-01  -7.8124999999999986e-02  -3.1250000000000000e-02  1.5625000000000000e-02  6.2500000000000000e-02  1.0937500000000000e-01  1.5625000000000000e-01  2.0312500000000000e-01  2.5000000000000000e-01  2.9687500000000000e-01  3.4375000000000000e-01  3.9062500000000000e-01  4.3750000000000000e-01  4.8437500000000000e-01  5.3125000000000000e-01  5.7812500000000000e-01  6.2500000000000000e-01  6.7187500000000000e-01  7.1875000000000000e-01  7.6562500000000000e-01  8.1250000000000000e-01  8.5937500000000000e-01  9.0625000000000000e-01  9.5312500000000000e-01  1.0000000000000000e+00  -2.0000000000000000e+00  -1.9133583757575092e+00  -1.8333967742081321e+00  -1.7586881085364841e+00  -1.6883104147394261e+00  -1.6215941895942791e+00  -1.5580203625097324e+00  -1.4971709145270586e+00  -1.4387011344203338e+00  -1.3823221780238766e+00  -1.3277891819917031e+00  -1.2748926859436045e+00  -1.2234521851462392e+00  -1.1733111402713747e+00  -1.1243330304894514e+00  -1.0763981802298486e+00  -1.0294011752066274e+00  -9.8324873672341040e-01  -9.3785795847898457e-01  -8.9315483444733912e-01  -8.4907302413156494e-01  -8.0555281521603139e-01  -7.6254025513948387e-01  -7.1998643368391102e-01  -6.7784690937889736e-01  -6.3608128448563772e-01  -5.9465294830049620e-01  -5.5352902913095803e-01  -5.1268062194318942e-01  -4.7208337551444413e-01  -4.3171846415137805e-01  -3.9157367768426504e-01  -3.5164365670053477e-01  -3.1192758825561839e-01  -2.7242495952708307e-01  -2.3314398217368013e-01  -1.9414845465553332e-01  -1.5554394920979081e-01  -1.1726913922911938e-01  -7.9080990366887108e-02  -4.4544490702680899e-02  -1.1901841512564116e-02  2.1785965893751234e-02  5.7406861761934991e-02  9.6153122069556465e-02  1.3802772099078170e-01  1.8132437560684686e-01  2.2538855770574281e-01  2.6992581383475184e-01  3.1478336555231207e-01  3.5987224652323146e-01  4.0513585292735693e-01  4.5053566300243980e-01  4.9604405686957487e-01  5.4164038735518338e-01  5.8730867620932381e-01  6.3303618496378755e-01  6.7881248579194298e-01  7.2462883269738354e-01  7.7047772048469176e-01  8.1635256493612973e-01  8.6224746308007638e-01  9.0815700711118086e-01  9.5407613423795268e-01  1.0000000000000000e+00  -2.0000000000000000e+00  -1.8767177856680972e+00  -1.7682313366741877e+00  -1.6711324291337775e+00  -1.5830734932828248e+00  -1.5023587015370230e+00  -1.4277159171895244e+00  -1.3581629153181296e+00  -1.2929242264776000e+00  -1.2313766997180380e+00  -1.1730123077584615e+00  -1.1174118395686918e+00  -1.0642257667306301e+00  -1.0131600062725139e+00  -9.6396512451022121e-01  -9.1642801861590828e-01  -8.7036541938685497e-01  -8.2561875661290884e-01  -7.8205006011638412e-01  -7.3953865966327781e-01  -6.9797851047164294e-01  -6.5727601744776798e-01  -6.1734826687280497e-01  -5.7812160342252539e-01  -5.3953051624690473e-01  -5.0151682285709920e-01  -4.6402916720419479e-01  -4.2702288635127300e-01  -3.9046036351357105e-01  -3.5431208617795901e-01  -3.1855872528471019e-01  -2.8319441450126265e-01  -2.4823033968352740e-01  -2.1369438672631652e-01  -1.7961720116480215e-01  -1.4601857819963304e-01  -1.1305572290321429e-01  -8.1232228870572742e-02  -5.0819020527203142e-02  -2.2949935983026089e-02  3.0823722068366441e-03  2.9834925902116508e-02  5.8798800031510230e-02  9.0862319905594804e-02  1.2667790552550917e-01  1.6525838628672371e-01  2.0563122373086287e-01  2.4717904138137256e-01  2.8953133208095244e-01  3.3246040185126519e-01  3.7581976761325692e-01  4.1951050218375613e-01  4.6346274221282768e-01  5.0762517712067678e-01  5.5195881634183452e-01  5.9643313251832453e-01  6.4102357785388342e-01  6.8570992550660104e-01  7.3047512451289986e-01  7.7530448430525367e-01  8.2018507617975112e-01  8.6510528027299516e-01  9.1005443112669382e-01  9.5502252984062919e-01  1.0000000000000000e+00  -2.0000000000000000e+00  -1.8426119208097980e+00  -1.7094208126923442e+00  -1.5941357803068239e+00  -1.4925480596289369e+00  -1.4017198018239310e+00  -1.3195258697184193e+00  -1.2443829554506765e+00  -1.1750822336526974e+00  -1.1106817484993214e+00  -1.0504347252377793e+00  -9.9374032827196834e-01  -9.4010893154243036e-01  -8.8913705825922540e-01  -8.4048893584548023e-01  -7.9388268323646360e-01  -7.4907980967753007e-01  -7.0587712502405020e-01  -6.6410043612771374e-01  -6.2359958746311261e-01  -5.8424452996556087e-01  -5.4592219086262950e-01  -5.0853398258635785e-01  -4.7199383976492643e-01  -4.3622671586187683e-01  -4.0116750875922375e-01  -3.6676042006744053e-01  -3.3295879515941901e-01  -2.9972557267361694e-01  -2.6703466992442421e-01  -2.3487405680933676e-01  -2.0325198654069629e-01  -1.7220842645514414e-01  -1.4183073478871513e-01  -1.1224196378521080e-01  -8.3458314867965483e-02  -5.5508548356157476e-02  -3.0523244834074429e-02  -7.6784243534160660e-03  1.4516189002223122e-02  3.6949618327396364e-02  6.1574515870257307e-02  8.9576988086176673e-02  1.2056571230342483e-01  1.5443779384016168e-01  1.9069669489974089e-01  2.2876309164850844e-01  2.6816505200793228e-01  3.0856007125642010e-01  3.4970714215853960e-01  3.9143591989477489e-01  4.3362364598158332e-01  4.7617962654443802e-01  5.1903509305847084e-01  5.6213656837315351e-01  6.0544145966825635e-01  6.4891506842682078e-01  6.9252851386767822e-01  7.3625725554236121e-01  7.8008001604367216e-01  8.2397797520462579e-01  8.6793415070545976e-01  9.1193290728197063e-01  9.5595955399786992e-01  1.0000000000000000e+00  -2.0000000000000000e+00  -1.8107309876226023e+00  -1.6560242774371627e+00  -1.5258302467483391e+00  -1.4137467416119356e+00  -1.3154815690649033e+00  -1.2280361010489487e+00  -1.1492434761983359e+00  -1.0774933845508969e+00  -1.0115606505502999e+00  -9.5049435734771037e-01  -8.9354375642282902e-01  -8.4010734045583535e-01  -7.8969696626945340e-01  -7.4191203086272284e-01  -6.9642052991990533e-01  -6.5294493316795399e-01  -6.1125149895658892e-01  -5.7114209014945172e-01  -5.3244784137770662e-01  -4.9502422090181930e-01  -4.5874716357870193e-01  -4.2351004703105927e-01  -3.8922135615355247e-01  -3.5580294178011496e-01  -3.2318883252776576e-01  -2.9132460229148599e-01  -2.6016732616358312e-01  -2.2968620311351934e-01  -1.9986411009486407e-01  -1.7070097412280671e-01  -1.4222158498990126e-01  -1.1449531738843798e-01  -8.7694568706461778e-02  -6.2240973976027174e-02  -3.8283994411051334e-02  -1.6575060892242213e-02  3.2585137077536072e-03  2.2855752946102488e-02  4.3218226271137909e-02  6.5234393657880821e-02  8.9936531165339686e-02  1.1736892413951425e-01  1.4738574738176627e-01  1.7981086263197191e-01  2.1432750782356957e-01  2.5055939595549775e-01  2.8815800374542799e-01  3.2683675877825585e-01  3.6637217563169783e-01  4.0659312382571960e-01  4.4736853530336435e-01  4.8859702492486989e-01  5.3019900019561483e-01  5.7211090442405177e-01  6.1428106935472659e-01  6.5666672231746448e-01  6.9923180599492984e-01  7.4194536774519437e-01  7.8478034912244832e-01  8.2771265788961979e-01  8.7072044006224747e-01  9.1378349329785902e-01  9.5688277886887974e-01  1.0000000000000000e+00  -2.0000000000000000e+00  -1.7808780480424868e+00  -1.6073384272301354e+00  -1.4648176968285220e+00  -1.3444966240653868e+00  -1.2406897958489111e+00  -1.1495488623312622e+00  -1.0683650885394840e+00  -9.9516989386511145e-01  -9.2849403711988487e-01  -8.6721611253137021e-01  -8.1046372685465984e-01  -7.5754701126190682e-01  -7.0791267327884710e-01  -6.6111149422434279e-01  -6.1677486494952882e-01  -5.7459754339312030e-01  -5.3432478857226462e-01  -4.9574263518697842e-01  -4.5867046554194063e-01  -4.2295529455012265e-01  -3.8846735924766640e-01  -3.5509672819491522e-01  -3.2275074045631386e-01  -2.9135216559911536e-01  -2.6083805612981215e-01  -2.3115933645601464e-01  -2.0228120611001732e-01  -1.7418441361878911e-01  -1.4686751212867699e-01  -1.2035067277988855e-01  -9.4682987745138142e-02  -6.9959807784910163e-02  -4.6309215643227208e-02  -2.5406889004797917e-02  -6.5520384057030333e-03  1.1339461856838437e-02  2.8953319682740782e-02  4.7646168581555508e-02  6.8290375334058614e-02  9.0833198867649345e-02  1.1556829099370641e-01  1.4257642992477437e-01  1.7179749045215395e-01  2.0309240148239005e-01  2.3624307780706780e-01  2.7098898060448506e-01  3.0707080824002614e-01  3.4425678447947744e-01  3.8235167776427614e-01  4.2119586447304141e-01  4.6066034648128429e-01  5.0064093765606255e-01  5.4105297837506694e-01  5.8182697977271214e-01  6.2290519100913277e-01  6.6423894549338092e-01  7.0578662004938220e-01  7.4751206032103834e-01  7.8938335481130717e-01  8.3137186716915767e-01  8.7345145835605154e-01  9.1559784697833868e-01  9.5778806817979012e-01  1.0000000000000000e+00  -2.0000000000000000e+00  -1.7529084097899195e+00  -1.5628121454819084e+00  -1.4100219307746733e+00  -1.2831722812512949e+00  -1.1751955821341247e+00  -1.0814407005118076e+00  -9.9870734018948215e-01  -9.2471294536053550e-01  -8.5778072558169749e-01  -7.9664814780955406e-01  -7.4034459147719767e-01  -6.8811049884543674e-01  -6.3934237443787023e-01  -5.9355441978304713e-01  -5.5035118446401965e-01  -5.0940770084142173e-01  -4.7045482177267672e-01  -4.3326825467937236e-01  -3.9766027708626522e-01  -3.6347343931111376e-01  -3.3057577455306331e-01  -2.9885718583122178e-01  -2.6822679247151110e-01  -2.3861112420172950e-01  -2.0995317854137002e-01  -1.8221251995889887e-01  -1.5536673779978397e-01  -1.2941459682728421e-01  -1.0438137478475255e-01  -8.0328318672468424e-02  -5.7374100627971228e-02  -3.5748474496889747e-02  -1.6532504265079257e-02  5.3511206837016578e-04  1.6974739273934284e-02  3.3669409451889024e-02  5.1248510924824763e-02  7.0485226363320150e-02  9.1463907615891682e-02  1.1423973548495152e-01  1.3892700401706237e-01  1.6557101411372296e-01  1.9413538301968486e-01  2.2451817503836696e-01  2.5656342131782645e-01  2.9008264041534837e-01  3.2487946413071350e-01  3.6076789313535207e-01  3.9758188647288822e-01  4.3517830982088568e-01  4.7343604849266852e-01  5.1225340084302928e-01  5.5154499587587869e-01  5.9123884528259685e-01  6.3127376941571145e-01  6.7159724859754455e-01  7.1216366838818024e-01  7.5293289867826863e-01  7.9386914263258468e-01  8.3493999761965165e-01  8.7611567921446243e-01  9.1736836807965405e-01  9.5867164687194184e-01  1.0000000000000000e+00  -2.0000000000000000e+00  -1.7267049267752339e+00  -1.5219983448334327e+00  -1.3605945643844224e+00  -1.2285280860666485e+00  -1.1173923391700260e+00  -1.0217911012865257e+00  -9.3808381145322339e-01  -8.6371511712400695e-01  -7.9683262771346375e-01  -7.3605723112207322e-01  -6.8033895474580208e-01  -6.2886314718107827e-01  -5.8098748679498169e-01  -5.3619854627008867e-01  -4.9408114752788374e-01  -4.5429631218958211e-01  -4.1656513292416447e-01  -3.8065681919868383e-01  -3.4637975455026954e-01  -3.1357477976535930e-01  -2.8211016687017149e-01  -2.5187792059227554e-01  -2.2279117152895006e-01  -1.9478254980510701e-01  -1.6780362285651643e-01  -1.4182584924507882e-01  -1.1684402127415562e-01  -9.2883566772733392e-02  -7.0014216751220465e-02  -4.8377254142074298e-02  -2.8298013395417161e-02  -1.0427089124606314e-02  5.5881333134409558e-03  2.0823525935238740e-02  3.6588944340307634e-02  5.3632291230261919e-02  7.1886088201349091e-02  9.1582318331008675e-02  1.1284029328123636e-01  1.3573483143920276e-01  1.6032897547586858e-01  1.8664523949337022e-01  2.1465485247449567e-01  2.4428149433356650e-01  2.7540979201052262e-01  3.0789869560836852e-01  3.4159651473212699e-01  3.7635343745832889e-01  4.1202966517103895e-01  4.4849943984494467e-01  4.8565213682547453e-01  5.2339162134750739e-01  5.6163475900282167e-01  6.0030963606608534e-01  6.3935379277357207e-01  6.7871261109290582e-01  7.1833790622752558e-01  7.5818672337127169e-01  7.9822031942111082e-01  8.3840330146240183e-01  8.7870289280249225e-01  9.1908829925387303e-01  9.5953015122832375e-01  1.0000000000000000e+00  -2.0000000000000000e+00  -1.7021668213718344e+00  -1.4845252713714385e+00  -1.3158534807897095e+00  -1.1795894937318536e+00  -1.0660506135911298e+00  -9.6915676929577987e-01  -8.8487583611236065e-01  -8.1041630597177838e-01  -7.4377735982874793e-01  -6.8348347084901306e-01  -6.2842038566017244e-01  -5.7772973646954284e-01  -5.3073906094647394e-01  -4.8691401227963865e-01  -4.4582493185278593e-01  -4.0712298836619026e-01  -3.7052285778380056e-01  -3.3578998851274888e-01  -3.0273116405325462e-01  -2.7118750577586981e-01  -2.4102934496563946e-01  -2.1215258935118556e-01  -1.8447634846431041e-01  -1.5794170824171380e-01  -1.3251179468423749e-01  -1.0817401936461785e-01  -8.4947075822031801e-02  -6.2897522553686094e-02  -4.2175030375163271e-02  -2.3191377277493458e-02  -6.3126944945298222e-03  8.9642551313849211e-03  2.3606881508393979e-02  3.8674844956093295e-02  5.4925220921795588e-02  7.2384722927501935e-02  9.1081232319301056e-02  1.1111766547812904e-01  1.3258011573884246e-01  1.5553032151475457e-01  1.8000882695383894e-01  2.0602611590939374e-01  2.3355729305136114e-01  2.6254315781088067e-01  2.9289555678232920e-01  3.2450583527547611e-01  3.5725446173109693e-01  3.9101967679479754e-01  4.2568389690799424e-01  4.6113764756237974e-01  4.9728143761677807e-01  5.3402618871870455e-01  5.7129278272181527e-01  6.0901114720535099e-01  6.4711915451958668e-01  6.8556149677298095e-01  7.2428862205774480e-01  7.6325576915818216e-01  8.0242211021818521e-01  8.4174999600635292e-01  8.8120429127923183e-01  9.2075178490502185e-01  9.6036065878748089e-01  1.0000000000000000e+00  -2.0000000000000000e+00  -1.6792041967477771e+00  -1.4500782980336171e+00  -1.2752412678024572e+00  -1.1355804187269380e+00  -1.0202106189515234e+00  -9.2242865521424799e-01  -8.3785544763150044e-01  -7.6349524794303569e-01  -6.9722162801929988e-01  -6.3747910522035101e-01  -5.8310116304538451e-01  -5.3319461114797184e-01  -4.8706352020675492e-01  -4.4415770240325347e-01  -4.0403693961395520e-01  -3.6634562307581553e-01  -3.3079446917569122e-01  -2.9714717527538376e-01  -2.6521062454038208e-01  -2.3482773078289604e-01  -2.0587234245176411e-01  -1.7824586053318980e-01  -1.5187539544158840e-01  -1.2671340486436272e-01  -1.0273896147516541e-01  -7.9962099623678673e-02  -5.8437984820493977e-02  -3.8305742261561505e-02  -2.0026855201639264e-02  -3.8408781370975441e-03  1.0880175966438596e-02  2.5098418735316749e-02  3.9720383195796197e-02  5.5343751458944837e-02  7.2052371463279502e-02  8.9900147238649183e-02  1.0893645267022416e-01  1.2922699552336403e-01  1.5083218268124995e-01  1.7379751192713416e-01  1.9814989491533885e-01  2.2389310413900471e-01  2.5100504601067447e-01  2.7943828707626595e-01  3.0912344203243741e-01  3.3997462698010977e-01  3.7189582012198713e-01  4.0478691108177023e-01  4.3854859810376090e-01  4.7308581587980197e-01  5.0830977736055349e-01  5.4413891318871754e-01  5.8049903596038366e-01  6.1732301551391677e-01  6.5455018132644316e-01  6.9212559942168639e-01  7.2999931607229018e-01  7.6812562098552717e-01  8.0646235628709462e-01  8.4497028106559269e-01  8.8361249140306009e-01  9.2235389029950177e-01  9.6116069901657819e-01  1.0000000000000000e+00  -2.0000000000000000e+00  -1.6577351668692875e+00  -1.4183876796786630e+00  -1.2382962573020648e+00  -1.0958733623738670e+00  -9.7911013210790676e-01  -8.8073817876829752e-01  -7.9607154112483747e-01  -7.2193774230810259e-01  -6.5610381885317537e-01  -5.9694775782688780e-01  -5.4326038673964783e-01  -4.9412068182539853e-01  -4.4881441432108360e-01  -4.0677943843282488e-01  -3.6756794432265877e-01  -3.3081985827092231e-01  -2.9624378307286403e-01  -2.6360318800220495e-01  -2.3270637350173468e-01  -2.0339926919802626e-01  -1.7556050527597908e-01  -1.4909851193247498e-01  -1.2395069652989159e-01  -1.0008498698733263e-01  -7.7504084486473807e-02  -5.6254374780953756e-02  -3.6457326513301892e-02  -1.8544908302355244e-02  -2.7749161598286075e-03  1.1541225163327729e-02  2.5413509194638844e-02  3.9687041081930011e-02  5.4832481080529211e-02  7.0927406220610292e-02  8.8040366233728393e-02  1.0622704189359106e-01  1.2553743559958250e-01  1.4602168126385309e-01  1.6772410753565911e-01  1.9067764859719308e-01  2.1490013664137769e-01  2.4039135972061151e-01  2.6713149977606598e-01  2.9508150245107173e-01  3.2418529729104456e-01  3.5437341049053839e-01  3.8556728069497143e-01  4.1768354930653562e-01  4.5063776854547732e-01  4.8434724049251388e-01  5.1873294275691584e-01  5.5372065071522891e-01  5.8924143241708549e-01  6.2523169756348806e-01  6.6163295585058379e-01  6.9839140351503148e-01  7.3545742182420260e-01  7.7278504242454094e-01  8.1033141287907318e-01  8.4805628056586302e-01  8.8592150296791394e-01  9.2389058587334683e-01  9.6192824697932999e-01  1.0000000000000000e+00  -2.0000000000000000e+00  -1.6376842725570455e+00  -1.3892198976778574e+00  -1.2046317669038200e+00  -1.0599542954910270e+00  -9.4213479389340904e-01  -8.4339384620399616e-01  -7.5877422604812028e-01  -6.8495033654022963e-01  -6.1959861312956599e-01  -5.6104148862708836e-01  -5.0803484883149286e-01  -4.5963536332493704e-01  -4.1511453711456814e-01  -3.7390126469574875e-01  -3.3554241885189590e-01  -2.9967522914937972e-01  -2.6600760657980843e-01  -2.3430399285734790e-01  -2.0437519339578455e-01  -1.7607123665875418e-01  -1.4927674838061181e-01  -1.2390878074650666e-01  -9.9917682239017161e-02  -7.7292646328473699e-02  -5.6074559028100456e-02  -3.6378760491590764e-02  -1.8554756638096293e-02  -2.9493555454684832e-03  1.1114067245413840e-02  2.4695398888578926e-02  3.8657462923525177e-02  5.3403755317235221e-02  6.8995093823780412e-02  8.5493026109238729e-02  1.0295464535743276e-01  1.2143021850240419e-01  1.4096456657066167e-01  1.6159818639680670e-01  1.8336491760034043e-01  2.0628883828460137e-01  2.3038164333236741e-01  2.5564069832599762e-01  2.8204809092190619e-01  3.0957092566091049e-01  3.3816283419013071e-01  3.6776643699602779e-01  3.9831634286082440e-01  4.2974223690392344e-01  4.6197168627909907e-01  4.9493243478786020e-01  5.2855410245936740e-01  5.6276931449819678e-01  5.9751434542924164e-01  6.3272938647236587e-01  6.6835854099737191e-01  7.0434963696365294e-01  7.4065392528494811e-01  7.7722571400936080e-01  8.1402197223879402e-01  8.5100192535087216e-01  8.8812665402938551e-01  9.2535870324664182e-01  9.6266170302739495e-01  1.0000000000000000e+00  -2.0000000000000000e+00  -1.6189815588202825e+00  -1.3623712880695364e+00  -1.1739208501661045e+00  -1.0273973706203325e+00  -9.0878302656106358e-01  -8.0983727828864205e-01  -7.2536310999225295e-01  -6.5190204053745870e-01  -5.8705323924772346e-01  -5.2909259218245430e-01  -4.7674727058616523e-01  -4.2905603627461053e-01  -3.8527930024951001e-01  -3.4483933399008249e-01  -3.0727945687451325e-01  -2.7223557764647127e-01  -2.3941604238516986e-01  -2.0858726013201695e-01  -1.7956351835080539e-01  -1.5220003270087987e-01  -1.2638878682726090e-01  -1.0205733562335226e-01  -7.9172012914490678e-02  -5.7750640210718740e-02  -3.7900974565521980e-02  -1.9918176761934196e-02  -4.2615371430272057e-03  9.7003316960801861e-03  2.3056969439529146e-02  3.6726228726530183e-02 