<?xml version="1.0"?>
<VTKFile type="UnstructuredGrid"  version="0.1"  >
<UnstructuredGrid>
<Piece  NumberOfPoints="4225" NumberOfCells="8192">
<Points>
<DataArray  type="Float64"  NumberOfComponents="3"  format="ascii">0 0 0  0.015625 0 0  0.03125 0 0  0.046875 0 0  0.0625 0 0  0.078125 0 0  0.09375 0 0  0.109375 0 0  0.125 0 0  0.140625 0 0  0.15625 0 0  0.171875 0 0  0.1875 0 0  0.203125 0 0  0.21875 0 0  0.234375 0 0  0.25 0 0  0.265625 0 0  0.28125 0 0  0.296875 0 0  0.3125 0 0  0.328125 0 0  0.34375 0 0  0.359375 0 0  0.375 0 0  0.390625 0 0  0.40625 0 0  0.421875 0 0  0.4375 0 0  0.453125 0 0  0.46875 0 0  0.484375 0 0  0.5 0 0  0.515625 0 0  0.53125 0 0  0.546875 0 0  0.5625 0 0  0.578125 0 0  0.59375 0 0  0.609375 0 0  0.625 0 0  0.640625 0 0  0.65625 0 0  0.671875 0 0  0.6875 0 0  0.703125 0 0  0.71875 0 0  0.734375 0 0  0.75 0 0  0.765625 0 0  0.78125 0 0  0.796875 0 0  0.8125 0 0  0.828125 0 0  0.84375 0 0  0.859375 0 0  0.875 0 0  0.890625 0 0  0.90625 0 0  0.921875 0 0  0.9375 0 0  0.953125 0 0  0.96875 0 0  0.984375 0 0  1 0 0  0 0.015625 0  0.015625 0.015625 0  0.03125 0.015625 0  0.046875 0.015625 0  0.0625 0.015625 0  0.078125 0.015625 0  0.09375 0.015625 0  0.109375 0.015625 0  0.125 0.015625 0  0.140625 0.015625 0  0.15625 0.015625 0  0.171875 0.015625 0  0.1875 0.015625 0  0.203125 0.015625 0  0.21875 0.015625 0  0.234375 0.015625 0  0.25 0.015625 0  0.265625 0.015625 0  0.28125 0.015625 0  0.296875 0.015625 0  0.3125 0.015625 0  0.328125 0.015625 0  0.34375 0.015625 0  0.359375 0.015625 0  0.375 0.015625 0  0.390625 0.015625 0  0.40625 0.015625 0  0.421875 0.015625 0  0.4375 0.015625 0  0.453125 0.015625 0  0.46875 0.015625 0  0.484375 0.015625 0  0.5 0.015625 0  0.515625 0.015625 0  0.53125 0.015625 0  0.546875 0.015625 0  0.5625 0.015625 0  0.578125 0.015625 0  0.59375 0.015625 0  0.609375 0.015625 0  0.625 0.015625 0  0.640625 0.015625 0  0.65625 0.015625 0  0.671875 0.015625 0  0.6875 0.015625 0  0.703125 0.015625 0  0.71875 0.015625 0  0.734375 0.015625 0  0.75 0.015625 0  0.765625 0.015625 0  0.78125 0.015625 0  0.796875 0.015625 0  0.8125 0.015625 0  0.828125 0.015625 0  0.84375 0.015625 0  0.859375 0.015625 0  0.875 0.015625 0  0.890625 0.015625 0  0.90625 0.015625 0  0.921875 0.015625 0  0.9375 0.015625 0  0.953125 0.015625 0  0.96875 0.015625 0  0.984375 0.015625 0  1 0.015625 0  0 0.03125 0  0.015625 0.03125 0  0.03125 0.03125 0  0.046875 0.03125 0  0.0625 0.03125 0  0.078125 0.03125 0  0.09375 0.03125 0  0.109375 0.03125 0  0.125 0.03125 0  0.140625 0.03125 0  0.15625 0.03125 0  0.171875 0.03125 0  0.1875 0.03125 0  0.203125 0.03125 0  0.21875 0.03125 0  0.234375 0.03125 0  0.25 0.03125 0  0.265625 0.03125 0  0.28125 0.03125 0  0.296875 0.03125 0  0.3125 0.03125 0  0.328125 0.03125 0  0.34375 0.03125 0  0.359375 0.03125 0  0.375 0.03125 0  0.390625 0.03125 0  0.40625 0.03125 0  0.421875 0.03125 0  0.4375 0.03125 0  0.453125 0.03125 0  0.46875 0.03125 0  0.484375 0.03125 0  0.5 0.03125 0  0.515625 0.03125 0  0.53125 0.03125 0  0.546875 0.03125 0  0.5625 0.03125 0  0.578125 0.03125 0  0.59375 0.03125 0  0.609375 0.03125 0  0.625 0.03125 0  0.640625 0.03125 0  0.65625 0.03125 0  0.671875 0.03125 0  0.6875 0.03125 0  0.703125 0.03125 0  0.71875 0.03125 0  0.734375 0.03125 0  0.75 0.03125 0  0.765625 0.03125 0  0.78125 0.03125 0  0.796875 0.03125 0  0.8125 0.03125 0  0.828125 0.03125 0  0.84375 0.03125 0  0.859375 0.03125 0  0.875 0.03125 0  0.890625 0.03125 0  0.90625 0.03125 0  0.921875 0.03125 0  0.9375 0.03125 0  0.953125 0.03125 0  0.96875 0.03125 0  0.984375 0.03125 0  1 0.03125 0  0 0.046875 0  0.015625 0.046875 0  0.03125 0.046875 0  0.046875 0.046875 0  0.0625 0.046875 0  0.078125 0.046875 0  0.09375 0.046875 0  0.109375 0.046875 0  0.125 0.046875 0  0.140625 0.046875 0  0.15625 0.046875 0  0.171875 0.046875 0  0.1875 0.046875 0  0.203125 0.046875 0  0.21875 0.046875 0  0.234375 0.046875 0  0.25 0.046875 0  0.265625 0.046875 0  0.28125 0.046875 0  0.296875 0.046875 0  0.3125 0.046875 0  0.328125 0.046875 0  0.34375 0.046875 0  0.359375 0.046875 0  0.375 0.046875 0  0.390625 0.046875 0  0.40625 0.046875 0  0.421875 0.046875 0  0.4375 0.046875 0  0.453125 0.046875 0  0.46875 0.046875 0  0.484375 0.046875 0  0.5 0.046875 0  0.515625 0.046875 0  0.53125 0.046875 0  0.546875 0.046875 0  0.5625 0.046875 0  0.578125 0.046875 0  0.59375 0.046875 0  0.609375 0.046875 0  0.625 0.046875 0  0.640625 0.046875 0  0.65625 0.046875 0  0.671875 0.046875 0  0.6875 0.046875 0  0.703125 0.046875 0  0.71875 0.046875 0  0.734375 0.046875 0  0.75 0.046875 0  0.765625 0.046875 0  0.78125 0.046875 0  0.796875 0.046875 0  0.8125 0.046875 0  0.828125 0.046875 0  0.84375 0.046875 0  0.859375 0.046875 0  0.875 0.046875 0  0.890625 0.046875 0  0.90625 0.046875 0  0.921875 0.046875 0  0.9375 0.046875 0  0.953125 0.046875 0  0.96875 0.046875 0  0.984375 0.046875 0  1 0.046875 0  0 0.0625 0  0.015625 0.0625 0  0.03125 0.0625 0  0.046875 0.0625 0  0.0625 0.0625 0  0.078125 0.0625 0  0.09375 0.0625 0  0.109375 0.0625 0  0.125 0.0625 0  0.140625 0.0625 0  0.15625 0.0625 0  0.171875 0.0625 0  0.1875 0.0625 0  0.203125 0.0625 0  0.21875 0.0625 0  0.234375 0.0625 0  0.25 0.0625 0  0.265625 0.0625 0  0.28125 0.0625 0  0.296875 0.0625 0  0.3125 0.0625 0  0.328125 0.0625 0  0.34375 0.0625 0  0.359375 0.0625 0  0.375 0.0625 0  0.390625 0.0625 0  0.40625 0.0625 0  0.421875 0.0625 0  0.4375 0.0625 0  0.453125 0.0625 0  0.46875 0.0625 0  0.484375 0.0625 0  0.5 0.0625 0  0.515625 0.0625 0  0.53125 0.0625 0  0.546875 0.0625 0  0.5625 0.0625 0  0.578125 0.0625 0  0.59375 0.0625 0  0.609375 0.0625 0  0.625 0.0625 0  0.640625 0.0625 0  0.65625 0.0625 0  0.671875 0.0625 0  0.6875 0.0625 0  0.703125 0.0625 0  0.71875 0.0625 0  0.734375 0.0625 0  0.75 0.0625 0  0.765625 0.0625 0  0.78125 0.0625 0  0.796875 0.0625 0  0.8125 0.0625 0  0.828125 0.0625 0  0.84375 0.0625 0  0.859375 0.0625 0  0.875 0.0625 0  0.890625 0.0625 0  0.90625 0.0625 0  0.921875 0.0625 0  0.9375 0.0625 0  0.953125 0.0625 0  0.96875 0.0625 0  0.984375 0.0625 0  1 0.0625 0  0 0.078125 0  0.015625 0.078125 0  0.03125 0.078125 0  0.046875 0.078125 0  0.0625 0.078125 0  0.078125 0.078125 0  0.09375 0.078125 0  0.109375 0.078125 0  0.125 0.078125 0  0.140625 0.078125 0  0.15625 0.078125 0  0.171875 0.078125 0  0.1875 0.078125 0  0.203125 0.078125 0  0.21875 0.078125 0  0.234375 0.078125 0  0.25 0.078125 0  0.265625 0.078125 0  0.28125 0.078125 0  0.296875 0.078125 0  0.3125 0.078125 0  0.328125 0.078125 0  0.34375 0.078125 0  0.359375 0.078125 0  0.375 0.078125 0  0.390625 0.078125 0  0.40625 0.078125 0  0.421875 0.078125 0  0.4375 0.078125 0  0.453125 0.078125 0  0.46875 0.078125 0  0.484375 0.078125 0  0.5 0.078125 0  0.515625 0.078125 0  0.53125 0.078125 0  0.546875 0.078125 0  0.5625 0.078125 0  0.578125 0.078125 0  0.59375 0.078125 0  0.609375 0.078125 0  0.625 0.078125 0  0.640625 0.078125 0  0.65625 0.078125 0  0.671875 0.078125 0  0.6875 0.078125 0  0.703125 0.078125 0  0.71875 0.078125 0  0.734375 0.078125 0  0.75 0.078125 0  0.765625 0.078125 0  0.78125 0.078125 0  0.796875 0.078125 0  0.8125 0.078125 0  0.828125 0.078125 0  0.84375 0.078125 0  0.859375 0.078125 0  0.875 0.078125 0  0.890625 0.078125 0  0.90625 0.078125 0  0.921875 0.078125 0  0.9375 0.078125 0  0.953125 0.078125 0  0.96875 0.078125 0  0.984375 0.078125 0  1 0.078125 0  0 0.09375 0  0.015625 0.09375 0  0.03125 0.09375 0  0.046875 0.09375 0  0.0625 0.09375 0  0.078125 0.09375 0  0.09375 0.09375 0  0.109375 0.09375 0  0.125 0.09375 0  0.140625 0.09375 0  0.15625 0.09375 0  0.171875 0.09375 0  0.1875 0.09375 0  0.203125 0.09375 0  0.21875 0.09375 0  0.234375 0.09375 0  0.25 0.09375 0  0.265625 0.09375 0  0.28125 0.09375 0  0.296875 0.09375 0  0.3125 0.09375 0  0.328125 0.09375 0  0.34375 0.09375 0  0.359375 0.09375 0  0.375 0.09375 0  0.390625 0.09375 0  0.40625 0.09375 0  0.421875 0.09375 0  0.4375 0.09375 0  0.453125 0.09375 0  0.46875 0.09375 0  0.484375 0.09375 0  0.5 0.09375 0  0.515625 0.09375 0  0.53125 0.09375 0  0.546875 0.09375 0  0.5625 0.09375 0  0.578125 0.09375 0  0.59375 0.09375 0  0.609375 0.09375 0  0.625 0.09375 0  0.640625 0.09375 0  0.65625 0.09375 0  0.671875 0.09375 0  0.6875 0.09375 0  0.703125 0.09375 0  0.71875 0.09375 0  0.734375 0.09375 0  0.75 0.09375 0  0.765625 0.09375 0  0.78125 0.09375 0  0.796875 0.09375 0  0.8125 0.09375 0  0.828125 0.09375 0  0.84375 0.09375 0  0.859375 0.09375 0  0.875 0.09375 0  0.890625 0.09375 0  0.90625 0.09375 0  0.921875 0.09375 0  0.9375 0.09375 0  0.953125 0.09375 0  0.96875 0.09375 0  0.984375 0.09375 0  1 0.09375 0  0 0.109375 0  0.015625 0.109375 0  0.03125 0.109375 0  0.046875 0.109375 0  0.0625 0.109375 0  0.078125 0.109375 0  0.09375 0.109375 0  0.109375 0.109375 0  0.125 0.109375 0  0.140625 0.109375 0  0.15625 0.109375 0  0.171875 0.109375 0  0.1875 0.109375 0  0.203125 0.109375 0  0.21875 0.109375 0  0.234375 0.109375 0  0.25 0.109375 0  0.265625 0.109375 0  0.28125 0.109375 0  0.296875 0.109375 0  0.3125 0.109375 0  0.328125 0.109375 0  0.34375 0.109375 0  0.359375 0.109375 0  0.375 0.109375 0  0.390625 0.109375 0  0.40625 0.109375 0  0.421875 0.109375 0  0.4375 0.109375 0  0.453125 0.109375 0  0.46875 0.109375 0  0.484375 0.109375 0  0.5 0.109375 0  0.515625 0.109375 0  0.53125 0.109375 0  0.546875 0.109375 0  0.5625 0.109375 0  0.578125 0.109375 0  0.59375 0.109375 0  0.609375 0.109375 0  0.625 0.109375 0  0.640625 0.109375 0  0.65625 0.109375 0  0.671875 0.109375 0  0.6875 0.109375 0  0.703125 0.109375 0  0.71875 0.109375 0  0.734375 0.109375 0  0.75 0.109375 0  0.765625 0.109375 0  0.78125 0.109375 0  0.796875 0.109375 0  0.8125 0.109375 0  0.828125 0.109375 0  0.84375 0.109375 0  0.859375 0.109375 0  0.875 0.109375 0  0.890625 0.109375 0  0.90625 0.109375 0  0.921875 0.109375 0  0.9375 0.109375 0  0.953125 0.109375 0  0.96875 0.109375 0  0.984375 0.109375 0  1 0.109375 0  0 0.125 0  0.015625 0.125 0  0.03125 0.125 0  0.046875 0.125 0  0.0625 0.125 0  0.078125 0.125 0  0.09375 0.125 0  0.109375 0.125 0  0.125 0.12
[...]
<PointData  Scalars="f_6"> 
<DataArray  type="Float64"  Name="f_6"  format="ascii">-2.0000000000000000e+00  -1.9531250000000000e+00  -1.9062500000000000e+00  -1.8593750000000000e+00  -1.8125000000000000e+00  -1.7656250000000000e+00  -1.7187500000000000e+00  -1.6718750000000000e+00  -1.6250000000000000e+00  -1.5781250000000000e+00  -1.5312500000000000e+00  -1.4843750000000000e+00  -1.4375000000000000e+00  -1.3906250000000000e+00  -1.3437500000000000e+00  -1.2968750000000000e+00  -1.2500000000000000e+00  -1.2031250000000000e+00  -1.1562500000000000e+00  -1.1093750000000000e+00  -1.0625000000000000e+00  -1.0156250000000000e+00  -9.6874999999999989e-01  -9.2187500000000000e-01  -8.7500000000000000e-01  -8.2812500000000000e-01  -7.8125000000000000e-01  -7.3437500000000000e-01  -6.8750000000000000e-01  -6.4062500000000000e-01  -5.9375000000000000e-01  -5.4687500000000000e-01  -4.9999999999999994e-01  -4.5312500000000000e-01  -4.0625000000000000e-01  -3.5937500000000000e-01  -3.1250000000000000e-01  -2.6562500000000000e-01  -2.1875000000000000e-01  -1.7187500000000000e-01  -1.2500000000000000e-01  -7.8125000000000000e-02  -3.1250000000000000e-02  1.5625000000000000e-02  6.2500000000000000e-02  1.0937500000000000e-01  1.5625000000000000e-01  2.0312500000000000e-01  2.5000000000000000e-01  2.9687500000000000e-01  3.4375000000000000e-01  3.9062500000000000e-01  4.3750000000000000e-01  4.8437500000000000e-01  5.3125000000000000e-01  5.7812500000000000e-01  6.2500000000000000e-01  6.7187500000000000e-01  7.1875000000000000e-01  7.6562500000000000e-01  8.1250000000000000e-01  8.5937500000000000e-01  9.0625000000000000e-01  9.5312500000000000e-01  1.0000000000000000e+00  -2.0000000000000000e+00  -1.9131188050026389e+00  -1.8329536374632327e+00  -1.7580770034995585e+00  -1.6875657801541577e+00  -1.6207487326001031e+00  -1.5571046494676084e+00  -1.4962130907548843e+00  -1.4377267444947808e+00  -1.3813540654658147e+00  -1.3268474522191189e+00  -1.2739947198181598e+00  -1.2226126929060313e+00  -1.1725422475203660e+00  -1.1236443893920987e+00  -1.0757971002244651e+00  -1.0288927684522466e+00  -9.8283607418248775e-01  -9.3754223308332207e-01  -8.9293552828796519e-01  -8.4894807712705256e-01  -8.0551879321298148e-01  -7.6259251562864816e-01  -7.2011928678243342e-01  -6.7805377002056877e-01  -6.3635480941286937e-01  -5.9498515101150318e-01  -5.5391137150237457e-01  -5.1310409355471975e-01  -4.7253857752089934e-01  -4.3219567520813656e-01  -3.9206273251450297e-01  -3.5213318777442021e-01  -3.1240312692687650e-01  -2.7286764732223262e-01  -2.3353702508963967e-01  -1.9448331449329168e-01  -1.5582123823180077e-01  -1.1747662486419251e-01  -7.9204212795243020e-02  -4.4618525107972942e-02  -1.1955309961814832e-02  2.1738734377099861e-02  5.7362021466037791e-02  9.6111477808178164e-02  1.3798881123357440e-01  1.8128805478782364e-01  2.2535473787077678e-01  2.6989441599306913e-01  3.1475431294263906e-01  3.5984546518642124e-01  4.0511127289121762e-01  4.5051321906487951e-01  4.9602368900208937e-01  5.4162204086482413e-01  5.8729230176295644e-01  6.3302173853861732e-01  6.7879992858991733e-01  7.2461813104548922e-01  7.7046884573416963e-01  8.1634549336840545e-01  8.6224217582411578e-01  9.0815349007512236e-01  9.5407437805673667e-01  1.0000000000000000e+00  -2.0000000000000000e+00  -1.8762525108670363e+00  -1.7673975622711682e+00  -1.6700180730438778e+00  -1.5817570202604780e+00  -1.5009091961154080e+00  -1.4261934892247354e+00  -1.3566192598887159e+00  -1.2914032439818353e+00  -1.2299151270682054e+00  -1.1716403356133593e+00  -1.1161537034064748e+00  -1.0631003064837323e+00  -1.0121811929638813e+00  -9.6314255427028106e-01  -9.1576737537174224e-01  -8.6986890781050619e-01  -8.2528550685423074e-01  -7.8187650563997724e-01  -7.3951888937274157e-01  -6.9810459642893163e-01  -6.5753831992614742e-01  -6.1773571890475765e-01  -5.7862197660344816e-01  -5.4013066736659621e-01  -5.0220291722867250e-01  -4.6478687301072974e-01  -4.2783754189979639e-01  -3.9131713751023295e-01  -3.5519615489176182e-01  -3.1945540210652601e-01  -2.8408884538446916e-01  -2.4910565690437497e-01  -2.1452628528055145e-01  -1.8036699413734747e-01  -1.4665365262300348e-01  -1.1356545945551394e-01  -8.1638829265897842e-02  -5.1085642369948947e-02  -2.3111056744960071e-02  2.9623776686901206e-03  2.9734582205130707e-02  5.8708395861013257e-02  9.0774686844185729e-02  1.2659507853310040e-01  1.6518071233829587e-01  2.0555867004694339e-01  2.4711148070221439e-01  2.8946861315886069e-01  3.3240237059106581e-01  3.7576627491182846e-01  4.1946140731356957e-01  4.6341791436621094e-01  5.0758449607865441e-01  5.5192217269425115e-01  5.9640042764838430e-01  6.4099472380159550e-01  6.8568484477556324e-01  7.3045374985787015e-01  7.7528675852278361e-01  8.2017095191533673e-01  8.6509471985293473e-01  9.1004740641963711e-01  9.5501902215182377e-01  1.0000000000000000e+00  -2.0000000000000000e+00  -1.8419327168687802e+00  -1.7082410783169149e+00  -1.5926070261734997e+00  -1.4907964183113460e+00  -1.3998490629552662e+00  -1.3176205996242802e+00  -1.2425113240091912e+00  -1.1732984588650373e+00  -1.1090281721448907e+00  -1.0489435654058461e+00  -9.9243516010722588e-01  -9.3900594343001487e-01  -8.8824612375142231e-01  -8.3981453452795962e-01  -7.9342469734210097e-01  -7.4883421778461812e-01  -7.0583660959510541e-01  -6.6425491791489744e-01  -6.2393669697943033e-01  -5.8475002445004309e-01  -5.4658032455951633e-01  -5.0932783842052021e-01  -4.7290563049344853e-01  -4.3723806062755238e-01  -4.0225968596463718e-01  -3.6791459478352462e-01  -3.3415623354819779e-01  -3.0094790081012984e-01  -2.6826428440938799e-01  -2.3609472171053811e-01  -2.0444913125302536e-01  -1.7336695905245708e-01  -1.4292311791925438e-01  -1.1319299973759957e-01  -8.4205408135382256e-02  -5.6024867195633536e-02  -3.0877155255516476e-02  -7.9234714438089302e-03  1.4330802721382489e-02  3.6786282191424990e-02  6.1422897316359366e-02  8.9436135024867372e-02  1.2043325151659144e-01  1.5431343714174187e-01  1.9058028953956510e-01  2.2865443235943969e-01  2.6806390173227690e-01  3.0846618534909331e-01  3.4962028135093515e-01  3.9135585655625738e-01  4.3355016708502125e-01  4.7611253500774053e-01  5.1897420825206653e-01  5.6208172618514196e-01  6.0539251233473401e-01  6.4887188424381681e-01  6.9249097685287020e-01  7.3622526508764463e-01  7.8005348658375806e-01  8.2395683591722313e-01  8.6791834525264988e-01  9.1192239359866778e-01  9.5595430413092142e-01  1.0000000000000000e+00  -2.0000000000000000e+00  -1.8098483135827632e+00  -1.6545372032031913e+00  -1.5239605876711759e+00  -1.4116678308194022e+00  -1.3133273544084560e+00  -1.2259090900840706e+00  -1.1472211579787193e+00  -1.0756332871722454e+00  -1.0099042992139482e+00  -9.4907037953329620e-01  -8.9237033423228984e-01  -8.3919416444611272e-01  -7.8904680746781752e-01  -7.4152201860533185e-01  -6.9628320123192888e-01  -6.5304910292796337e-01  -6.1158298763325314e-01  -5.7168433644052408e-01  -5.3318242004043104e-01  -4.9593128129525194e-01  -4.5980580206397770e-01  -4.2469862625116650e-01  -3.9051778491834377e-01  -3.5718492729358842e-01  -3.2463410840124518e-01  -2.9281112683739680e-01  -2.6167346631759048e-01  -2.3119102303791050e-01  -2.0134809526559888e-01  -1.7214775306278080e-01  -1.4362105720979662e-01  -1.1584646346563091e-01  -8.8994244088246327e-02  -6.3319199924078987e-02  -3.9013868821944547e-02  -1.7050449894177422e-02  2.9113157159792236e-03  2.2587882009493399e-02  4.2992275448790557e-02  6.5019207313236890e-02  8.9734589844014404e-02  1.1717999540550544e-01  1.4720874705557085e-01  1.7964512897771065e-01  2.1417257631878300e-01  2.5041486811897312e-01  2.8802350851836017e-01  3.2671194515430041e-01  3.6625671290732442e-01  4.0648670287724453e-01  4.4727086946251760e-01  4.8850785032766308e-01  5.3011807573672920e-01  5.7203801145951505e-01  6.1421601126159320e-01  6.5660932398606753e-01  6.9918191330445623e-01  7.4190284705607923e-01  7.8474508680738153e-01  8.2768455991714784e-01  8.7069943164177355e-01  9.1376951859146316e-01  9.5687580077319445e-01  1.0000000000000000e+00  -2.0000000000000000e+00  -1.7798015123588227e+00  -1.6055777618934910e+00  -1.4626681510118051e+00  -1.3421756663806135e+00  -1.2383557426661844e+00  -1.1473156283950601e+00  -1.0663132352048648e+00  -9.9335477993372368e-01  -9.2695183460888231e-01  -8.6596827831481560e-01  -8.0952036029675811e-01  -7.5690940436821308e-01  -7.0757527086929639e-01  -6.6106341893095755e-01  -6.1700111784880274e-01  -5.7507995999962458e-01  -5.3504280762219381e-01  -4.9667392133592764e-01  -4.5979141509020388e-01  -4.2424144487800342e-01  -3.8989371792109123e-01  -3.5663803701340419e-01  -3.2438169171435272e-01  -2.9304758633236622e-01  -2.6257305941470938e-01  -2.3290940391549281e-01  -2.0402215974159299e-01  -1.7589237996348545e-01  -1.4851941010200809e-01  -1.2192666092499296e-01  -9.6174439726364525e-02  -7.1393034968345662e-02  -4.7830456733890941e-02  -2.6495988238245973e-02  -7.1739672684826153e-03  1.0903341963895717e-02  2.8590514933570552e-02  4.7324332969643411e-02  6.8000386692687750e-02  9.0563681768717583e-02  1.1531625934095591e-01  1.4234050969756915e-01  1.7157661232247598e-01  2.0288575539474685e-01  2.3605001863888322e-01  2.7080895527930959e-01  3.0690331906789031e-01  3.4410137384242373e-01  3.8220792224681743e-01  4.2106337258287896e-01  4.6053875756014118e-01  5.0052992110366501e-01  5.4095223290767247e-01  5.8173623265459551e-01  6.2282419726605576e-01  6.6416748713440366e-01  7.0572450532280817e-01  7.4745912302483430e-01  7.8933945367254088e-01  8.3133688530221295e-01  8.7342530280583408e-01  9.1558044835221619e-01  9.5777938037039323e-01  1.0000000000000000e+00  -2.0000000000000000e+00  -1.7516470555109140e+00  -1.5608075975028630e+00  -1.4076433020429655e+00  -1.2806766315537481e+00  -1.1727595503379165e+00  -1.0791837188837978e+00  -9.9670799354836093e-01  -9.2302041730379236e-01  -8.5642285039956001e-01  -7.9563713400343083e-01  -7.3968114090760850e-01  -6.8778681002515840e-01  -6.3934436095126990e-01  -5.9386337006059042e-01  -5.5094501913134419e-01  -5.1026193648376061e-01  -4.7154331722560477e-01  -4.3456379265838613e-01  -3.9913501685116171e-01  -3.6509926355880162e-01  -3.3232454597550004e-01  -3.0070092721767921e-01  -2.7013780906891827e-01  -2.4056208959479006e-01  -2.1191717685963835e-01  -1.8416293897492000e-01  -1.5727678228107525e-01  -1.3125625200207700e-01  -1.0612398144605668e-01  -8.1937336991969673e-02  -5.8808439806575741e-02  -3.6950133187907415e-02  -1.7538730278217028e-02  -1.2534260942951466e-04  1.6551506439766536e-02  3.3273395149434025e-02  5.0860330621665131e-02  7.0118548242821960e-02  9.1121256583599541e-02  1.1391887372798978e-01  1.3862625605352244e-01  1.6528917172133931e-01  1.9387143714201718e-01  2.2427126163991773e-01  2.5633278756269329e-01  2.8986761529149185e-01  3.2467943863146742e-01  3.6058230890068682e-01  3.9741022965464284e-01  4.3502010764731247e-01  4.7329086709150348e-01  5.1212084361918320e-01  5.5142470213569983e-01  5.9113048898513887e-01  6.3117705801363089e-01  6.7151192196268339e-01  7.1208949782753883e-01  7.5286968604790827e-01  7.9381671955573474e-01  8.3489822481332865e-01  8.7608444592713364e-01  9.1734759164117463e-01  9.5866127235616172e-01  1.0000000000000000e+00  -2.0000000000000000e+00  -1.7252674032693853e+00  -1.5197761884773069e+00  -1.3580292224154968e+00  -1.2259109658384804e+00  -1.1149126537270457e+00  -1.0195688075408083e+00  -9.3619164383540943e-01  -8.6219331706849278e-01  -7.9569888231180674e-01  -7.3531346584225321e-01  -6.7997604046076232e-01  -6.2886420668477894e-01  -5.8133024799605948e-01  -5.3685703768868320e-01  -4.9502693417367344e-01  -4.5549940612346151e-01  -4.1799467010516356e-01  -3.8228156449202622e-01  -3.4816847486491831e-01  -3.1549650839573196e-01  -2.8413437016559545e-01  -2.5397457454807415e-01  -2.2493076625047445e-01  -1.9693605884637186e-01  -1.6994244909231546e-01  -1.4392155262090467e-01  -1.1886721887989082e-01  -9.4801292352175229e-02  -7.1785248872292026e-02  -4.9943053020718456e-02  -2.9559966339526428e-02  -1.1413656003015320e-02  4.8146054177841454e-03  2.0331087577454506e-02  3.6251360928037601e-02  5.3215656105854249e-02  7.1458864160834010e-02  9.1168272796379748e-02  1.1244721767089881e-01  1.3536430050611961e-01  1.5998071942380476e-01  1.8631848399224846e-01  2.1434870288433572e-01  2.4399506646021354e-01  2.7514225468048042e-01  3.0764927969249717e-01  3.4136451126580092e-01  3.7613819347421323e-01  4.1183057982375471e-01  4.4831596126022488e-01  4.8548375953937667e-01  5.2323788414586447e-01  5.6149524303080500e-01  6.0018396313662969e-01  6.3924162384064609e-01  6.7861364487515996e-01  7.1825187797675516e-01  7.5811340378352554e-01  7.9815951368916127e-01  8.3835484846823338e-01  8.7866666444819685e-01  9.1906419992918709e-01  9.5951811741307913e-01  1.0000000000000000e+00  -2.0000000000000000e+00  -1.7005614834639509e+00  -1.4821088067429005e+00  -1.3131367776050549e+00  -1.1768928844345530e+00  -1.0635707164234038e+00  -9.6701000999758946e-01  -8.8312625588194404e-01  -8.0909341373630017e-01  -7.4288773619030268e-01  -6.8301842070129337e-01  -6.2836105794737473e-01  -5.7805059524340763e-01  -5.3141026665819469e-01  -4.8790307225589735e-01  -4.4709785416046754e-01  -4.0864509408777488e-01  -3.7225935518416065e-01  -3.3770637745688165e-01  -3.0479351297861945e-01  -2.7336262189498622e-01  -2.4328484000636716e-01  -2.1445683365255536e-01  -1.8679832247579126e-01  -1.6025082121702869e-01  -1.3477778551205907e-01  -1.1036670584926894e-01  -8.7034505538314155e-02  -6.4840778502741322e-02  -4.3913436901125161e-02  -2.4594629842080364e-02  -7.4050123680913750e-03  8.0738093148881029e-03  2.2852865336109734e-02  3.8054473599521105e-02  5.4400318919630132e-02  7.1879004185111353e-02  9.0591197119436861e-02  1.1064846111096419e-01  1.3213504079749633e-01  1.5511039120178507e-01  1.7961383714332857e-01  2.0565534193951412e-01  2.3320982394286394e-01  2.6221804663612042e-01  2.9259188500651767e-01  3.2422273753221542e-01  3.5699113326502541e-01  3.9077537390661071e-01  4.2545793490593797e-01  4.6092939803045574e-01  4.9709032565991407e-01  5.3385169039409353e-01  5.7113442270502601e-01  6.0886849668992893e-01  6.4699182933716481e-01  6.8544915572055543e-01  7.2419096542079675e-01  7.6317253742027713e-01  8.0235308294915153e-01  8.4169499092224698e-01  8.8116316346823309e-01  9.2072442621429795e-01  9.6034699736696716e-01  1.0000000000000000e+00  -2.0000000000000000e+00  -1.6774391582571833e+00  -1.4474882143101946e+00  -1.2724026779205972e+00  -1.1328373113963532e+00  -1.0177625449783634e+00  -9.2038532925240391e-01  -8.3627022996777400e-01  -7.6238586642171624e-01  -6.9658319393732382e-01  -6.3729241583969443e-01  -5.8333807262196946e-01  -5.3382154689631278e-01  -4.8804380479895570e-01  -4.4545309696967916e-01  -4.0560867085719732e-01  -3.6815506513598623e-01  -3.3280359196115089e-01  -2.9931883172373608e-01  -2.6750871993985181e-01  -2.3721729050688301e-01  -2.0831946566148235e-01  -1.8071752080663170e-01  -1.5433905605959070e-01  -1.2913654264567909e-01  -1.0508890336502677e-01  -8.2206241876909530e-02  -6.0540819223717963e-02  -4.0213578489785677e-02  -2.1587685547267598e-02  -5.0615152292880867e-03  9.8791658622445211e-03  2.4215576863007165e-02  3.8919274908985259e-02  5.4633622564890058e-02  7.1416436965850510e-02  8.9308844595524170e-02  1.0837845902083790e-01  1.2869933373054385e-01  1.5033409320633723e-01  1.7332838636019574e-01  1.9770889600821032e-01  2.2347922267961556e-01  2.5061720431148538e-01  2.7907541113488665e-01  3.0878450117725448e-01  3.3965865216482144e-01  3.7160191035547435e-01  4.0451423398126635e-01  4.3829638786293074e-01  4.7285337029574603e-01  5.0809645467573006e-01  5.4394412906556944e-01  5.8032226070527682e-01  6.1716377158089508e-01  6.5440804109752915e-01  6.9200018324910062e-01  7.2989029056559918e-01  7.6803269752763514e-01  8.0638528976492130e-01  8.4490886880336957e-01  8.8356657228819047e-01  9.2232334409280414e-01  9.6114544584049166e-01  1.0000000000000000e+00  -2.0000000000000000e+00  -1.6558183267777136e+00  -1.4156423528639424e+00  -1.2353603059355167e+00  -1.0931095171550367e+00  -9.7671712154118417e-01  -8.7881659943564494e-01  -7.9466277082319214e-01  -7.2104722855840442e-01  -6.5571524827880501e-01  -5.9703181273301809e-01  -5.4378022665742254e-01  -4.9503540600278539e-01  -4.5008125776682889e-01  -4.0835516126306609e-01  -3.6940970050144256e-01  -3.3288572495236934e-01  -2.9849306697490424e-01  -2.6599658318907438e-01  -2.3520601336433555e-01  -2.0596868309380797e-01  -1.7816444492155947e-01  -1.5170254497073724e-01  -1.2652039897848066e-01  -1.0258468492637739e-01  -7.9896053973141590e-02  -5.8500628846511159e-02  -3.8508826712183905e-02  -2.0256978756398421e-02  -4.1344654526702610e-03  1.0422800291412055e-02  2.4417886895768601e-02  3.8756889912743640e-02  5.3975034871934044e-02  7.0144304785203337e-02  8.7322961783357661e-02  1.0556147821029700e-01  1.2491446063784672e-01  1.4543632158403599e-01  1.6717361193711330e-01  1.9016016502445016e-01  2.1441413784970165e-01  2.3993544845925224e-01  2.6670435948857524e-01  2.9468189241468640e-01  3.2381205640279204e-01  3.5402545959434112e-01  3.8524362201078394e-01  4.1738326380004998e-01  4.5036001226877304e-01  4.8409124061386777e-01  5.1849799368169058e-01  5.5350611048717757e-01  5.8904671946961706e-01  6.2505628783084510e-01  6.6147638022295685e-01  6.9825324561271873e-01  7.3533731606486386e-01  7.7268267235974231e-01  8.1024650977952917e-01  8.4798862223811999e-01  8.8587091278835506e-01  9.2385693202823682e-01  9.6191144190219546e-01  1.0000000000000000e+00  -2.0000000000000000e+00  -1.6356233261039468e+00  -1.3863356430058427e+00  -1.2016187936937457e+00  -1.0571896275683128e+00  -9.3981326921036745e-01  -8.4160519539192169e-01  -7.5754708123487369e-01  -6.8427776422980602e-01  -6.1945319016146561e-01  -5.6138433872462223e-01  -5.0882111681583297e-01  -4.6081754631595123e-01  -4.1664450360815314e-01  -3.7573145775256245e-01  -3.3762654531276409e-01  -3.0196862191873636e-01  -2.6846737788815184e-01  -2.3688905299390239e-01  -2.0704617705461245e-01  -1.7879034156491869e-01  -1.5200742202588102e-01  -1.2661504341915386e-01  -1.0256257804364152e-01  -7.9834920768300871e-02  -5.8464055693112575e-02  -3.8560584440945851e-02  -2.0409392534685145e-02  -4.4582103767348800e-03  9.8586151235919590e-03  2.3577517498438106e-02  3.7605091681623945e-02  5.2419061020264716e-02  6.8079669880803981e-02  8.4645599920631601e-02  1.0216962717207972e-01  1.2069964582445947e-01  1.4028158373621602e-01  1.6095788003064013e-01  1.8276386793362986e-01  2.0572452395078997e-01  2.2985204190689387e-01  2.5514407381911658e-01  2.8158289276887682e-01  3.0913574263249177e-01  3.3775637242488621e-01  3.6738750779896695e-01  3.9796385429327080e-01  4.2941518693937653e-01  4.6166915679824366e-01  4.9465358620926125e-01  5.2829816894998693e-01  5.6253559973183320e-01  5.9730221885516877e-01  6.3253828004991142e-01  6.6818794635073375e-01  7.0419910291395327e-01  7.4052305572139565e-01  7.7711416606694117e-01  8.1392945475533218e-01  8.5092819758122595e-01  8.8807152459887295e-01  9.2532202932959262e-01  9.6264338974005370e-01  1.0000000000000000e+00  -2.0000000000000000e+00  -1.6167840017036907e+00  -1.3593625801033509e+00  -1.1708476438042936e+00  -1.0246470499817339e+00  -9.0654409988558948e-01  -8.0818741205813038e-01  -7.2431784307252978e-01  -6.5144224115286764e-01  -5.8714086174468816e-01  -5.2967984414258640e-01  -4.7778198430990654e-01  -4.3048480940100392e-01  -3.8704930190575509e-01  -3.4689930034905125e-01  -3.0958018769512435e-01  -2.7473012230498522e-01  -2.4205969191974891e-01  -2.1133741907422982e-01  -1.8237950066673767e-01  -1.5504278904780774e-01  -1.2922047925689026e-01  -1.0484040930515215e-01  -8.1866626355028921e-02  -6.0306835557140531e-02  -4.0234356830720727e-02  -2.1922776379968676e-02  -5.9306874714088569e-03  8.2846886249877284e-03  2.1793656050973536e-02  3.5541960013142394e-02