<?xml version="1.0"?>
<VTKFile type="UnstructuredGrid"  version="0.1"  >
<UnstructuredGrid>
<Piece  NumberOfPoints="4225" NumberOfCells="8192">
<Points>
<DataArray  type="Float64"  NumberOfComponents="3"  format="ascii">0 0 0  0.015625 0 0  0.03125 0 0  0.046875 0 0  0.0625 0 0  0.078125 0 0  0.09375 0 0  0.109375 0 0  0.125 0 0  0.140625 0 0  0.15625 0 0  0.171875 0 0  0.1875 0 0  0.203125 0 0  0.21875 0 0  0.234375 0 0  0.25 0 0  0.265625 0 0  0.28125 0 0  0.296875 0 0  0.3125 0 0  0.328125 0 0  0.34375 0 0  0.359375 0 0  0.375 0 0  0.390625 0 0  0.40625 0 0  0.421875 0 0  0.4375 0 0  0.453125 0 0  0.46875 0 0  0.484375 0 0  0.5 0 0  0.515625 0 0  0.53125 0 0  0.546875 0 0  0.5625 0 0  0.578125 0 0  0.59375 0 0  0.609375 0 0  0.625 0 0  0.640625 0 0  0.65625 0 0  0.671875 0 0  0.6875 0 0  0.703125 0 0  0.71875 0 0  0.734375 0 0  0.75 0 0  0.765625 0 0  0.78125 0 0  0.796875 0 0  0.8125 0 0  0.828125 0 0  0.84375 0 0  0.859375 0 0  0.875 0 0  0.890625 0 0  0.90625 0 0  0.921875 0 0  0.9375 0 0  0.953125 0 0  0.96875 0 0  0.984375 0 0  1 0 0  0 0.015625 0  0.015625 0.015625 0  0.03125 0.015625 0  0.046875 0.015625 0  0.0625 0.015625 0  0.078125 0.015625 0  0.09375 0.015625 0  0.109375 0.015625 0  0.125 0.015625 0  0.140625 0.015625 0  0.15625 0.015625 0  0.171875 0.015625 0  0.1875 0.015625 0  0.203125 0.015625 0  0.21875 0.015625 0  0.234375 0.015625 0  0.25 0.015625 0  0.265625 0.015625 0  0.28125 0.015625 0  0.296875 0.015625 0  0.3125 0.015625 0  0.328125 0.015625 0  0.34375 0.015625 0  0.359375 0.015625 0  0.375 0.015625 0  0.390625 0.015625 0  0.40625 0.015625 0  0.421875 0.015625 0  0.4375 0.015625 0  0.453125 0.015625 0  0.46875 0.015625 0  0.484375 0.015625 0  0.5 0.015625 0  0.515625 0.015625 0  0.53125 0.015625 0  0.546875 0.015625 0  0.5625 0.015625 0  0.578125 0.015625 0  0.59375 0.015625 0  0.609375 0.015625 0  0.625 0.015625 0  0.640625 0.015625 0  0.65625 0.015625 0  0.671875 0.015625 0  0.6875 0.015625 0  0.703125 0.015625 0  0.71875 0.015625 0  0.734375 0.015625 0  0.75 0.015625 0  0.765625 0.015625 0  0.78125 0.015625 0  0.796875 0.015625 0  0.8125 0.015625 0  0.828125 0.015625 0  0.84375 0.015625 0  0.859375 0.015625 0  0.875 0.015625 0  0.890625 0.015625 0  0.90625 0.015625 0  0.921875 0.015625 0  0.9375 0.015625 0  0.953125 0.015625 0  0.96875 0.015625 0  0.984375 0.015625 0  1 0.015625 0  0 0.03125 0  0.015625 0.03125 0  0.03125 0.03125 0  0.046875 0.03125 0  0.0625 0.03125 0  0.078125 0.03125 0  0.09375 0.03125 0  0.109375 0.03125 0  0.125 0.03125 0  0.140625 0.03125 0  0.15625 0.03125 0  0.171875 0.03125 0  0.1875 0.03125 0  0.203125 0.03125 0  0.21875 0.03125 0  0.234375 0.03125 0  0.25 0.03125 0  0.265625 0.03125 0  0.28125 0.03125 0  0.296875 0.03125 0  0.3125 0.03125 0  0.328125 0.03125 0  0.34375 0.03125 0  0.359375 0.03125 0  0.375 0.03125 0  0.390625 0.03125 0  0.40625 0.03125 0  0.421875 0.03125 0  0.4375 0.03125 0  0.453125 0.03125 0  0.46875 0.03125 0  0.484375 0.03125 0  0.5 0.03125 0  0.515625 0.03125 0  0.53125 0.03125 0  0.546875 0.03125 0  0.5625 0.03125 0  0.578125 0.03125 0  0.59375 0.03125 0  0.609375 0.03125 0  0.625 0.03125 0  0.640625 0.03125 0  0.65625 0.03125 0  0.671875 0.03125 0  0.6875 0.03125 0  0.703125 0.03125 0  0.71875 0.03125 0  0.734375 0.03125 0  0.75 0.03125 0  0.765625 0.03125 0  0.78125 0.03125 0  0.796875 0.03125 0  0.8125 0.03125 0  0.828125 0.03125 0  0.84375 0.03125 0  0.859375 0.03125 0  0.875 0.03125 0  0.890625 0.03125 0  0.90625 0.03125 0  0.921875 0.03125 0  0.9375 0.03125 0  0.953125 0.03125 0  0.96875 0.03125 0  0.984375 0.03125 0  1 0.03125 0  0 0.046875 0  0.015625 0.046875 0  0.03125 0.046875 0  0.046875 0.046875 0  0.0625 0.046875 0  0.078125 0.046875 0  0.09375 0.046875 0  0.109375 0.046875 0  0.125 0.046875 0  0.140625 0.046875 0  0.15625 0.046875 0  0.171875 0.046875 0  0.1875 0.046875 0  0.203125 0.046875 0  0.21875 0.046875 0  0.234375 0.046875 0  0.25 0.046875 0  0.265625 0.046875 0  0.28125 0.046875 0  0.296875 0.046875 0  0.3125 0.046875 0  0.328125 0.046875 0  0.34375 0.046875 0  0.359375 0.046875 0  0.375 0.046875 0  0.390625 0.046875 0  0.40625 0.046875 0  0.421875 0.046875 0  0.4375 0.046875 0  0.453125 0.046875 0  0.46875 0.046875 0  0.484375 0.046875 0  0.5 0.046875 0  0.515625 0.046875 0  0.53125 0.046875 0  0.546875 0.046875 0  0.5625 0.046875 0  0.578125 0.046875 0  0.59375 0.046875 0  0.609375 0.046875 0  0.625 0.046875 0  0.640625 0.046875 0  0.65625 0.046875 0  0.671875 0.046875 0  0.6875 0.046875 0  0.703125 0.046875 0  0.71875 0.046875 0  0.734375 0.046875 0  0.75 0.046875 0  0.765625 0.046875 0  0.78125 0.046875 0  0.796875 0.046875 0  0.8125 0.046875 0  0.828125 0.046875 0  0.84375 0.046875 0  0.859375 0.046875 0  0.875 0.046875 0  0.890625 0.046875 0  0.90625 0.046875 0  0.921875 0.046875 0  0.9375 0.046875 0  0.953125 0.046875 0  0.96875 0.046875 0  0.984375 0.046875 0  1 0.046875 0  0 0.0625 0  0.015625 0.0625 0  0.03125 0.0625 0  0.046875 0.0625 0  0.0625 0.0625 0  0.078125 0.0625 0  0.09375 0.0625 0  0.109375 0.0625 0  0.125 0.0625 0  0.140625 0.0625 0  0.15625 0.0625 0  0.171875 0.0625 0  0.1875 0.0625 0  0.203125 0.0625 0  0.21875 0.0625 0  0.234375 0.0625 0  0.25 0.0625 0  0.265625 0.0625 0  0.28125 0.0625 0  0.296875 0.0625 0  0.3125 0.0625 0  0.328125 0.0625 0  0.34375 0.0625 0  0.359375 0.0625 0  0.375 0.0625 0  0.390625 0.0625 0  0.40625 0.0625 0  0.421875 0.0625 0  0.4375 0.0625 0  0.453125 0.0625 0  0.46875 0.0625 0  0.484375 0.0625 0  0.5 0.0625 0  0.515625 0.0625 0  0.53125 0.0625 0  0.546875 0.0625 0  0.5625 0.0625 0  0.578125 0.0625 0  0.59375 0.0625 0  0.609375 0.0625 0  0.625 0.0625 0  0.640625 0.0625 0  0.65625 0.0625 0  0.671875 0.0625 0  0.6875 0.0625 0  0.703125 0.0625 0  0.71875 0.0625 0  0.734375 0.0625 0  0.75 0.0625 0  0.765625 0.0625 0  0.78125 0.0625 0  0.796875 0.0625 0  0.8125 0.0625 0  0.828125 0.0625 0  0.84375 0.0625 0  0.859375 0.0625 0  0.875 0.0625 0  0.890625 0.0625 0  0.90625 0.0625 0  0.921875 0.0625 0  0.9375 0.0625 0  0.953125 0.0625 0  0.96875 0.0625 0  0.984375 0.0625 0  1 0.0625 0  0 0.078125 0  0.015625 0.078125 0  0.03125 0.078125 0  0.046875 0.078125 0  0.0625 0.078125 0  0.078125 0.078125 0  0.09375 0.078125 0  0.109375 0.078125 0  0.125 0.078125 0  0.140625 0.078125 0  0.15625 0.078125 0  0.171875 0.078125 0  0.1875 0.078125 0  0.203125 0.078125 0  0.21875 0.078125 0  0.234375 0.078125 0  0.25 0.078125 0  0.265625 0.078125 0  0.28125 0.078125 0  0.296875 0.078125 0  0.3125 0.078125 0  0.328125 0.078125 0  0.34375 0.078125 0  0.359375 0.078125 0  0.375 0.078125 0  0.390625 0.078125 0  0.40625 0.078125 0  0.421875 0.078125 0  0.4375 0.078125 0  0.453125 0.078125 0  0.46875 0.078125 0  0.484375 0.078125 0  0.5 0.078125 0  0.515625 0.078125 0  0.53125 0.078125 0  0.546875 0.078125 0  0.5625 0.078125 0  0.578125 0.078125 0  0.59375 0.078125 0  0.609375 0.078125 0  0.625 0.078125 0  0.640625 0.078125 0  0.65625 0.078125 0  0.671875 0.078125 0  0.6875 0.078125 0  0.703125 0.078125 0  0.71875 0.078125 0  0.734375 0.078125 0  0.75 0.078125 0  0.765625 0.078125 0  0.78125 0.078125 0  0.796875 0.078125 0  0.8125 0.078125 0  0.828125 0.078125 0  0.84375 0.078125 0  0.859375 0.078125 0  0.875 0.078125 0  0.890625 0.078125 0  0.90625 0.078125 0  0.921875 0.078125 0  0.9375 0.078125 0  0.953125 0.078125 0  0.96875 0.078125 0  0.984375 0.078125 0  1 0.078125 0  0 0.09375 0  0.015625 0.09375 0  0.03125 0.09375 0  0.046875 0.09375 0  0.0625 0.09375 0  0.078125 0.09375 0  0.09375 0.09375 0  0.109375 0.09375 0  0.125 0.09375 0  0.140625 0.09375 0  0.15625 0.09375 0  0.171875 0.09375 0  0.1875 0.09375 0  0.203125 0.09375 0  0.21875 0.09375 0  0.234375 0.09375 0  0.25 0.09375 0  0.265625 0.09375 0  0.28125 0.09375 0  0.296875 0.09375 0  0.3125 0.09375 0  0.328125 0.09375 0  0.34375 0.09375 0  0.359375 0.09375 0  0.375 0.09375 0  0.390625 0.09375 0  0.40625 0.09375 0  0.421875 0.09375 0  0.4375 0.09375 0  0.453125 0.09375 0  0.46875 0.09375 0  0.484375 0.09375 0  0.5 0.09375 0  0.515625 0.09375 0  0.53125 0.09375 0  0.546875 0.09375 0  0.5625 0.09375 0  0.578125 0.09375 0  0.59375 0.09375 0  0.609375 0.09375 0  0.625 0.09375 0  0.640625 0.09375 0  0.65625 0.09375 0  0.671875 0.09375 0  0.6875 0.09375 0  0.703125 0.09375 0  0.71875 0.09375 0  0.734375 0.09375 0  0.75 0.09375 0  0.765625 0.09375 0  0.78125 0.09375 0  0.796875 0.09375 0  0.8125 0.09375 0  0.828125 0.09375 0  0.84375 0.09375 0  0.859375 0.09375 0  0.875 0.09375 0  0.890625 0.09375 0  0.90625 0.09375 0  0.921875 0.09375 0  0.9375 0.09375 0  0.953125 0.09375 0  0.96875 0.09375 0  0.984375 0.09375 0  1 0.09375 0  0 0.109375 0  0.015625 0.109375 0  0.03125 0.109375 0  0.046875 0.109375 0  0.0625 0.109375 0  0.078125 0.109375 0  0.09375 0.109375 0  0.109375 0.109375 0  0.125 0.109375 0  0.140625 0.109375 0  0.15625 0.109375 0  0.171875 0.109375 0  0.1875 0.109375 0  0.203125 0.109375 0  0.21875 0.109375 0  0.234375 0.109375 0  0.25 0.109375 0  0.265625 0.109375 0  0.28125 0.109375 0  0.296875 0.109375 0  0.3125 0.109375 0  0.328125 0.109375 0  0.34375 0.109375 0  0.359375 0.109375 0  0.375 0.109375 0  0.390625 0.109375 0  0.40625 0.109375 0  0.421875 0.109375 0  0.4375 0.109375 0  0.453125 0.109375 0  0.46875 0.109375 0  0.484375 0.109375 0  0.5 0.109375 0  0.515625 0.109375 0  0.53125 0.109375 0  0.546875 0.109375 0  0.5625 0.109375 0  0.578125 0.109375 0  0.59375 0.109375 0  0.609375 0.109375 0  0.625 0.109375 0  0.640625 0.109375 0  0.65625 0.109375 0  0.671875 0.109375 0  0.6875 0.109375 0  0.703125 0.109375 0  0.71875 0.109375 0  0.734375 0.109375 0  0.75 0.109375 0  0.765625 0.109375 0  0.78125 0.109375 0  0.796875 0.109375 0  0.8125 0.109375 0  0.828125 0.109375 0  0.84375 0.109375 0  0.859375 0.109375 0  0.875 0.109375 0  0.890625 0.109375 0  0.90625 0.109375 0  0.921875 0.109375 0  0.9375 0.109375 0  0.953125 0.109375 0  0.96875 0.109375 0  0.984375 0.109375 0  1 0.109375 0  0 0.125 0  0.015625 0.125 0  0.03125 0.125 0  0.046875 0.125 0  0.0625 0.125 0  0.078125 0.125 0  0.09375 0.125 0  0.109375 0.125 0  0.125 0.12
[...]
<PointData  Scalars="f_6"> 
<DataArray  type="Float64"  Name="f_6"  format="ascii">-2.0000000000000000e+00  -1.9531250000000000e+00  -1.9062500000000000e+00  -1.8593750000000000e+00  -1.8125000000000000e+00  -1.7656250000000000e+00  -1.7187500000000000e+00  -1.6718750000000000e+00  -1.6250000000000000e+00  -1.5781250000000000e+00  -1.5312500000000000e+00  -1.4843750000000000e+00  -1.4375000000000000e+00  -1.3906250000000000e+00  -1.3437500000000000e+00  -1.2968750000000000e+00  -1.2500000000000000e+00  -1.2031250000000000e+00  -1.1562500000000000e+00  -1.1093750000000000e+00  -1.0625000000000000e+00  -1.0156250000000000e+00  -9.6875000000000011e-01  -9.2187500000000000e-01  -8.7500000000000000e-01  -8.2812500000000000e-01  -7.8125000000000000e-01  -7.3437500000000000e-01  -6.8750000000000000e-01  -6.4062500000000000e-01  -5.9375000000000000e-01  -5.4687500000000000e-01  -5.0000000000000000e-01  -4.5312500000000006e-01  -4.0625000000000000e-01  -3.5937500000000000e-01  -3.1250000000000000e-01  -2.6562500000000000e-01  -2.1875000000000000e-01  -1.7187500000000000e-01  -1.2500000000000000e-01  -7.8125000000000000e-02  -3.1250000000000000e-02  1.5625000000000000e-02  6.2500000000000000e-02  1.0937500000000000e-01  1.5625000000000000e-01  2.0312500000000000e-01  2.5000000000000000e-01  2.9687500000000000e-01  3.4375000000000000e-01  3.9062500000000000e-01  4.3750000000000000e-01  4.8437500000000000e-01  5.3125000000000000e-01  5.7812500000000000e-01  6.2500000000000000e-01  6.7187500000000000e-01  7.1875000000000000e-01  7.6562500000000000e-01  8.1250000000000000e-01  8.5937500000000000e-01  9.0625000000000000e-01  9.5312500000000000e-01  1.0000000000000000e+00  -2.0000000000000000e+00  -1.9132715318006310e+00  -1.8332346838406226e+00  -1.7584626065285074e+00  -1.6880332327060807e+00  -1.6212766975645521e+00  -1.5576733789497768e+00  -1.4968045688286551e+00  -1.4383247698112773e+00  -1.3819442862542295e+00  -1.3274173633889270e+00  -1.2745336298809224e+00  -1.2231116669684194e+00  -1.1729940314641563e+00  -1.1240433194579289e+00  -1.0761390015083270e+00  -1.0291748452727110e+00  -9.8305679483634023e-01  -9.3770121110770366e-01  -8.9303340189987379e-01  -8.4898638794667769e-01  -8.0549986472741597e-01  -7.6251933136377426e-01  -7.1999536835363076e-01  -6.7788305682242500e-01  -6.3614154516295585e-01  -5.9473378769323848e-01  -5.5362650917122469e-01  -5.1279049052480508e-01  -4.7220130487115330e-01  -4.3184056908249063e-01  -3.9169738149286015e-01  -3.5176855285010811e-01  -3.1205494857738264e-01  -2.7255453016996478e-01  -2.3327135612547245e-01  -1.9426727886259892e-01  -1.5564972932051765e-01  -1.1735337945760180e-01  -7.9135623392208809e-02  -4.4580627034522376e-02  -1.1929063460345668e-02  2.1762331069651107e-02  5.7385245398105328e-02  9.6133522192198437e-02  1.3800972957061397e-01  1.8130781142509339e-01  2.2537330605212361e-01  2.6991178618573064e-01  3.1477048803038693e-01  3.5986045573344877e-01  4.0512509390830409e-01  4.5052588791495479e-01  4.9603522402666522e-01  5.4163246045866331e-01  5.8730162373480421e-01  6.3302997966106789e-01  6.7880710427843705e-01  7.2462425512792206e-01  7.7047393028486111e-01  8.1634954858914854e-01  8.6224520995945830e-01  9.0815550935326150e-01  9.5407538664986913e-01  1.0000000000000000e+00  -2.0000000000000000e+00  -1.8765484002660160e+00  -1.7679239904727633e+00  -1.6707167385647677e+00  -1.5825766443162077e+00  -1.5018052000473352e+00  -1.4271275402031507e+00  -1.3575587704294854e+00  -1.2923208684617604e+00  -1.2307882759250974e+00  -1.1724507162378826e+00  -1.1168868907743286e+00  -1.0637453435993887e+00  -1.0127302197716224e+00  -9.6359046311085972e-01  -9.1611149095051658e-01  -8.7010868978780209e-01  -8.2542227342456487e-01  -7.8191317668807436e-01  -7.3945974781197987e-01  -6.9795506597913171e-01  -6.5730475682612310e-01  -6.1742521414096185e-01  -5.7824216490015179e-01  -5.3968954048894635e-01  -5.0170864275126925e-01  -4.6424762490005922e-01  -4.2726135537223503e-01  -3.9071181574648284e-01  -3.5456931460027091e-01  -3.1881492585023097e-01  -2.8344438734693644e-01  -2.4847223480620526e-01  -2.1393001694725675e-01  -1.7984623115616555e-01  -1.4623254251914736e-01  -1.1324386905830455e-01  -8.1393743041841882e-02  -5.0933565237309644e-02  -2.3025940350927247e-02  3.0229471143116632e-03  2.9784627990422301e-02  5.8754179717294241e-02  9.0820406022958988e-02  1.2663911380007439e-01  1.6522258466516426e-01  2.0559821007763610e-01  2.4714862659767037e-01  2.8950335066041194e-01  3.3243471020236876e-01  3.7579624099510384e-01  4.1948903198481297e-01  4.6344323372485013e-01  5.0760754773304317e-01  5.5194299407318403e-01  5.9641905481948521e-01  6.4101119063103085e-01  6.8569918232475868e-01  7.3046598594839018e-01  7.7529691742237361e-01  8.2017905411227443e-01  8.6510078189542339e-01  9.1005144080371847e-01  9.5502103724621457e-01  1.0000000000000000e+00  -2.0000000000000000e+00  -1.8423636325759600e+00  -1.7089827613974826e+00  -1.5935596682731332e+00  -1.4918782907394279e+00  -1.4009938926588597e+00  -1.3187751421982947e+00  -1.2436332741322402e+00  -1.1743546982537110e+00  -1.1099933128275346e+00  -1.0497987385285923e+00  -9.9316700456542240e-01  -9.3960575582923000e-01  -8.8870913847215527e-01  -8.4013930903095557e-01  -7.9361258313697047e-01  -7.4888890179110890e-01  -7.0576371409386318e-01  -6.6406164998781725e-01  -6.2363154023741962e-01  -5.8434246679040658e-01  -5.4608061555219545e-01  -5.0874676885184333e-01  -4.7225432541311357e-01  -4.3652777742512361e-01  -4.0150161142283242e-01  -3.6711963696074340e-01  -3.3333479756429507e-01  -3.0010961876383041e-01  -2.6741767691930340e-01  -2.3524695470562323e-01  -2.0360678738237392e-01  -1.7254082686406497e-01  -1.4214364252198516e-01  -1.1253663380507226e-01  -8.3717982496744572e-02  -5.5709179027086969e-02  -3.0675043522970315e-02  -7.7927730115576336e-03  1.4424775655341128e-02  3.6868641718927703e-02  6.1500360886264163e-02  8.9509171891370254e-02  1.2050308517636195e-01  1.5437994231997601e-01  1.9064328521233304e-01  2.2871381762261642e-01  2.6811963960050983e-01  3.0851827965587802e-01  3.4966876112357231e-01  3.9140076605978508e-01  4.3359155931099397e-01  4.7615046726658949e-01  5.1900873910747369e-01  5.6211291328154411e-01  6.0542041083892206e-01  6.4889654571881183e-01  6.9251244844117654e-01  7.3624358891850605e-01  7.8006869934396916e-01  8.2396896854215251e-01  8.6792742270624257e-01  9.1192843471997465e-01  9.5595732153127055e-01  1.0000000000000000e+00  -2.0000000000000000e+00  -1.8104070298711075e+00  -1.6554682768334250e+00  -1.5251188058768528e+00  -1.4129417844759447e+00  -1.3146323800085085e+00  -1.2271814779074350e+00  -1.1484136258171160e+00  -1.0767114928077508e+00  -1.0108441538612027e+00  -9.4985596572842168e-01  -8.9299227751453281e-01  -8.3964834650029141e-01  -7.8933333773008008e-01  -7.4164440307954227e-01  -6.9624766324443066e-01  -6.5286402234046037e-01  -6.1125843382370793e-01  -5.7123167694356070e-01  -5.3261399152069366e-01  -4.9526011255432489e-01  -4.5904537985503169e-01  -4.2386269373788965e-01  -3.8962016049257586e-01  -3.5623933050402751e-01  -3.2365398243201349e-01  -2.9180944926299518e-01  -2.6066251958764974e-01  -2.3018201300317001e-01  -2.0035033902975419e-01  -1.7116699043079264e-01  -1.4265672838573695e-01  -1.1489074557711638e-01  -8.8053507987774740e-02  -6.2570761017254437e-02  -3.8548380280402708e-02  -1.6773621380019255e-02  3.0991690001764328e-03  2.2725215960920857e-02  4.3105587051099098e-02  6.5128866782680178e-02  8.9839001944336402e-02  1.1727906178556062e-01  1.4730282047114249e-01  1.7973428509113473e-01  2.1425679624157534e-01  2.5049413559998651e-01  2.8809783452587434e-01  3.2678136723901802e-01  3.6632128857625745e-01  4.0654650280946997e-01  4.4732597193278834e-01  4.8855833692304007e-01  5.3016402814871810e-01  5.7207950910659600e-01  6.1425312953584688e-01  6.5664213296411800e-01  6.9921047680262916e-01  7.4192722194048810e-01  7.8476532249284459e-01  8.2770069800612367e-01  8.7071150566741995e-01  9.1377755383866677e-01  9.5687981415889323e-01  1.0000000000000000e+00  -2.0000000000000000e+00  -1.7804814071270836e+00  -1.6066757717850058e+00  -1.4639921079077340e+00  -1.3435868601985830e+00  -1.2397551100899649e+00  -1.1486333275260057e+00  -1.0675010488092500e+00  -9.9438061505808528e-01  -9.2779572006796385e-01  -8.6661942330586328e-01  -8.0997496687130144e-01  -7.5716901964834304e-01  -7.0764552956126558e-01  -6.6095307115802127e-01  -6.1672126800975147e-01  -5.7464346378602271e-01  -5.3446378957911644e-01  -4.9596738645373445e-01  -4.5897293605919270e-01  -4.2332691225926239e-01  -3.8889914334320702e-01  -3.5557939909063707e-01  -3.2327481122952628e-01  -2.9190801521116233e-01  -2.6141597507620973e-01  -2.3174951907730601e-01  -2.0287365458651443e-01  -1.7476874556826480e-01  -1.4743273540094226e-01  -1.2088508495962030e-01  -9.5174377094423987e-02  -7.0395672707112514e-02  -4.6678231585053104e-02  -2.5716448398019249e-02  -6.8014228772058155e-03  1.1135519649020107e-02  2.8775301331000130e-02  4.7487004581860767e-02  6.8147482737096532e-02  9.0702236416357496e-02  1.1544771832284065e-01  1.4246525283539335e-01  1.7169484983151273e-01  2.0299758133184492e-01  2.3615547906284726e-01  2.7090809400987986e-01  3.0699619566398278e-01  3.4418806619806236e-01  3.8228852313296952e-01  4.2113798466904911e-01  4.6060748868764873e-01  5.0059288034406457e-01  5.4100952745776254e-01  5.8178796546027478e-01  6.2287046523375078e-01  6.6420837979918401e-01  7.0576010386473442e-01  7.4748949954797239e-01  7.8936467068079741e-01  8.3135699532207752e-01  8.7344034811864713e-01  9.1559046080837936e-01  9.5778438126563614e-01  1.0000000000000000e+00  -2.0000000000000000e+00  -1.7524419239518061e+00  -1.5620529042216822e+00  -1.4091000970298955e+00  -1.2821821522339401e+00  -1.1742043872188384e+00  -1.0804957241102113e+00  -9.9784121527611180e-01  -9.2394749078745964e-01  -8.5712971822026696e-01  -7.9611933597883988e-01  -7.3994117077563293e-01  -6.8783220559369196e-01  -6.3918630497623663e-01  -5.9351565133131046e-01  -5.5042325087265820e-01  -5.0958296110830148e-01  -4.7072474839615047e-01  -4.3362366122481016e-01  -3.9809149877492683e-01  -3.6397047648921121e-01  -3.3112840647736497e-01  -2.9945506140570810e-01  -2.6885950470617620e-01  -2.3926827246136192e-01  -2.1062440744179456e-01  -1.8288748561433069e-01  -1.5603491095740579e-01  -1.3006483641925004e-01  -1.0500129926115501e-01  -8.0903616718690397e-02  -5.7887177508473601e-02  -3.6175234516484453e-02  -1.6886639145530801e-02  2.3154969193531523e-04  1.6717892772505804e-02  3.3447575641813942e-02  5.1045078774857949e-02  7.0300018298425568e-02  9.1295102899068795e-02  1.1408487782281256e-01  1.3878438209527541e-01  1.6543938140165929e-01  1.9401374468767030e-01  2.2440571134188514e-01  2.5645944466808912e-01  2.8998656571270270e-01  3.2479078792211474e-01  3.6068617875627923e-01  3.9750675308850925e-01  4.3510942404610836e-01  4.7337311780469266e-01  5.1219616830780723e-01  5.5149323587799304e-01  5.9119236004298947e-01  6.3123238613969745e-01  6.7156081713413318e-01  7.1213205930915258e-01  7.5290600170586885e-01  7.9384686536029547e-01  8.3492226448274121e-01  8.7610243067671190e-01  9.1735956001056662e-01  9.5866725009527221e-01  1.0000000000000000e+00  -2.0000000000000000e+00  -1.7261713467157347e+00  -1.5211515346056836e+00  -1.3595916323570867e+00  -1.2274772394603184e+00  -1.1163668154287607e+00  -1.0208395901796961e+00  -9.3723776624946797e-01  -8.6299380662063763e-01  -7.9624663454086420e-01  -7.3561089554461645e-01  -6.8003210122167024e-01  -6.2869231888431387e-01  -5.8094683881246234e-01  -5.3628049918272003e-01  -4.9427687077210647e-01  -4.5459608507846855e-01  -4.1695861663276118e-01  -3.8113326288025184e-01  -3.4692815147260830e-01  -3.1418398413744708e-01  -2.8276897889699376e-01  -2.5257514711317025e-01  -2.2351567302620381e-01  -1.9552328743877082e-01  -1.6854970106045400e-01  -1.4256646705208834e-01  -1.1756810843319578e-01  -9.3578872313994935e-02  -7.0665665921786122e-02  -4.8963663110897178e-02  -2.8784271925959559e-02  -1.0824578122226586e-02  5.2448646218705500e-03  2.0514859961308508e-02  3.6310509725060683e-02  5.3381765488161086e-02  7.1657419828192154e-02  9.1372886937914774e-02  1.1264803273794047e-01  1.3555778988054853e-01  1.6016555083378911e-01  1.8649414598829814e-01  2.1451503617562406e-01  2.4415207467993627e-01  2.7529002255492147e-01  3.0778793625072726e-01  3.4149421155549409e-01  3.7625910781643024e-01  4.1194288641867999e-01  4.4841984062218243e-01  4.8557939017720630e-01  5.2332543920447838e-01  5.6157488770341291e-01  6.0025585269399240e-01  6.3930590214791738e-01  6.7867044328849879e-01  7.1830131453187374e-01  7.5815558260605520e-01  7.9819452457177453e-01  8.3838276657188016e-01  8.7868755009489186e-01  9.1907809846190336e-01  9.5952505910488650e-01  1.0000000000000000e+00  -2.0000000000000000e+00  -1.7015688458768337e+00  -1.4835989894934913e+00  -1.3147822684705794e+00  -1.1784937005036873e+00  -1.0650076614401558e+00  -9.6821524188667296e-01  -8.8406488786438664e-01  -8.0975189918963786e-01  -7.4326642585718294e-01  -6.8312671774511613e-01  -6.2821421666479871e-01  -5.7766757720796313e-01  -5.3081228811053172e-01  -4.8711261002995909e-01  -4.4613795976081250e-01  -4.0753891729174663e-01  -3.7102981197302853e-01  -3.3637591979426062e-01  -3.0338397500494874e-01  -2.7189513187964776e-01  -2.4177980116158243e-01  -2.1293398633892963e-01  -1.8527689340270204e-01  -1.5874972488237668e-01  -1.3331579857929504e-01  -1.0896272778465048e-01  -8.5708805206232017e-02  -6.3618336569425643e-02  -4.2833211481433320e-02  -2.3739574572639227e-02  -6.7575335096950670e-03  8.5832116734492949e-03  2.3260053560190008e-02  3.8351683820154019e-02  5.4627520678267281e-02  7.2111556757577577e-02  9.0829948111834799e-02  1.1088607688710098e-01  1.3236635123422968e-01  1.5533269812765213e-01  1.7982588537103442e-01  2.0585661554212001e-01  2.3340017934659174e-01  2.6239752864731442e-01  2.9276063462093338e-01  3.2438094517979071e-01  3.5713901423270394e-01  3.9091315453526781e-01  4.2558584414759837e-01  4.6104766184673496e-01  4.9719916307747181e-01  5.3395131062948775e-01  5.7122502303718836e-01  6.0895026088165005e-01  6.4706492646948133e-01  6.8551373934007065e-01  7.2424717292378848e-01  7.6322048961470390e-01  8.0239288374886741e-01  8.4172672713811347e-01  8.8118690466907201e-01  9.2074022463726846e-01  9.6035488786237089e-01  1.0000000000000000e+00  -2.0000000000000000e+00  -1.6785444923851383e+00  -1.4490798283686270e+00  -1.2741126187023355e+00  -1.1344523052196278e+00  -1.0191630278737065e+00  -9.2150884238619768e-01  -8.3708944934905583e-01  -7.6289523515466207e-01  -6.9679065099784854e-01  -6.3721419484929842e-01  -5.8299538479949153e-01  -5.3323844171852453e-01  -4.8724577927543389e-01  -4.4446618790353171e-01  -4.0445886262720154e-01  -3.6686790561766530e-01  -3.3140394688447228e-01  -2.9783073260161130e-01  -2.6595527923017664e-01  -2.3562067513315318e-01  -2.0670094052449950e-01  -1.7909759685472162e-01  -1.5273778459254428e-01  -1.2757392856672065e-01  -1.0358519752899359e-01  -8.0781998982550535e-02  -5.9218868369035338e-02  -3.9028709312956170e-02  -2.0636086156691331e-02  -4.3353615894020630e-03  1.0459685443131287e-02  2.4715072447995801e-02  3.9358252985790348e-02  5.5004301080850269e-02  7.1736332410276868e-02  8.9606992752047129e-02  1.0866473897446847e-01  1.2897512126442467e-01  1.5059859718422519e-01  1.7358076602479580e-01  1.9794867698057636e-01  2.2370625146255588e-01  2.5083153702130850e-01  2.7927722594179616e-01  3.0897404210170692e-01  3.3983619561479822e-01  3.7176774566026327e-01  4.0466865194433893e-01  4.3843967378971094e-01  4.7298579953968745e-01  5.0821828965645810e-01  5.4405561719881246e-01  5.8042363293420240e-01  6.1725524132593834e-01  6.5448980350828778e-01  6.9207241467851421e-01  7.2995314820850599e-01  7.6808631918010462e-01  8.0642979367087753e-01  8.4494435356263453e-01  8.8359311680601360e-01  9.2234100755572812e-01  9.6115426770732881e-01  1.0000000000000000e+00  -2.0000000000000000e+00  -1.6570163779904665e+00  -1.4173235811654936e+00  -1.2371193356649588e+00  -1.0947229954552360e+00  -9.7806747730975208e-01  -8.7984820698072397e-01  -7.9535659870890374e-01  -7.2140593108784279e-01  -6.5575423912692477e-01  -5.9677383532958883e-01  -5.4325201136782608e-01  -4.9426559696281325e-01  -4.4909912558964549e-01  -4.0718980939197341e-01  -3.6808958534049885e-01  -3.3143837705459650e-01  -2.9694494151462592e-01  -2.6437299399583841e-01  -2.3353112379777424e-01  -2.0426554635306571e-01  -1.7645511516804657e-01  -1.5000832930270169e-01  -1.2486238384719864e-01  -1.0098464404503012e-01  -7.8377276695124121e-02  -5.7087196918014338e-02  -3.7232577568444482e-02  -1.9210027519354207e-02  -3.3209391487380151e-03  1.1078258743911945e-02  2.4992415604431998e-02  3.9286444834759071e-02  5.4453584854125291e-02  7.0570935107179794e-02  8.7706515129942778e-02  1.0591534286586564e-01  1.2524689376956744e-01  1.4575107201190401e-01  1.6747215021345063e-01  1.9044309180672936e-01  2.1468180506391954e-01  2.4018817630621864e-01  2.6694249133428999e-01  2.9490579599685501e-01  3.2402211222929966e-01  3.5422204951743180e-01  3.8542712084921232e-01  4.1755403379211420e-01  4.5051839952721950e-01  4.8423757286584534e-01  5.1863257880986091e-01  5.5362923557510157e-01  5.8915865017487112e-01  6.2515726797961257e-01  6.6156663155921802e-01  6.9833296765719211e-01  7.3540668605161685e-01  7.7274184522633005e-01  8.1029561819190399e-01  8.4802777663553386e-01  8.8590020143661974e-01  9.2387642107230183e-01  9.6192117541121569e-01  1.0000000000000000e+00  -2.0000000000000000e+00  -1.6369090258879859e+00  -1.3880960811087806e+00  -1.2034143060022477e+00  -1.0587896525279086e+00  -9.4110412753730799e-01  -8.4253911719680952e-01  -7.5811371820599260e-01  -6.8448795960047637e-01  -6.1932955976217430e-01  -5.6095572485857248e-01  -5.0811929375866471e-01  -4.5987526114432059e-01  -4.1549432257465174e-01  -3.7440510558701945e-01  -3.3615454959010804e-01  -3.0038014765602911e-01  -2.6679018095569512e-01  -2.3514950754755801e-01  -2.0526935090390502e-01  -1.7700011363057555e-01  -1.5022667380831958e-01  -1.2486604488691237e-01  -1.0086789239399092e-01  -7.8219509176130478e-02  -5.6958692312911438e-02  -3.7200258132699053e-02  -1.9271135638911745e-02  -3.5497520965955282e-03  1.0601435524000816e-02  2.4231299618746323e-02  3.8215890194508599e-02  5.2984706432483181e-02  6.8598706488771977e-02  8.5119339363800825e-02  1.0260345013644874e-01  1.2110096981190528e-01  1.4065642122603159e-01  1.6131012280017337e-01  1.8309583985094380e-01  2.0603764592475157e-01  2.3014727516215389e-01  2.5542215736410911e-01  2.8184445601277763e-01  3.0938135448203441e-01  3.3798656130120508e-01  3.6760276937641684e-01  3.9816465442704052e-01  4.2960196284768593e-01  4.6184231766120754e-01  4.9481351358661352e-01  5.2844521714203874e-01  5.6267009611686170e-01  5.9742446421056805e-01  6.3264854885842248e-01  6.6828648709177929e-01  7.0428613833941922e-01  7.4059878311443927e-01  7.7717875748169485e-01  8.1398305723487363e-01  8.5097093335097695e-01  8.8810349123262966e-01  9.2534329988564357e-01  9.6265401286523200e-01  1.0000000000000000e+00  -2.0000000000000000e+00  -1.6181524655272248e+00  -1.3611930848028473e+00  -1.1726693629434863e+00  -1.0262247192569527e+00  -9.0776941411905965e-01  -8.0902112801508308e-01  -7.2475842813491143e-01  -6.5150853552125620e-01  -5.8686231329963512e-01  -5.2909094038028848e-01  -4.7691906510827192e-01  -4.2938425746660069e-01  -3.8574654362756583e-01  -3.4542828979318213e-01  -3.0797318184410538e-01  -2.7301763346365604e-01  -2.4027054844661550e-01  -2.0949889218637688e-01  -1.8051747248713668e-01  -1.5318195661591918e-01  -1.2738463524022911e-01  -1.0305297944871186e-01  -8.0152088995382287e-02  -5.8695240829027488e-02  -3.8777135162071041e-02  -2.0688128288701629e-02  -4.9195861115772510e-03  9.1297888481190713e-03  2.2540735679977126e-02  3.6238473020810416e-02 