<?xml version="1.0"?>
<VTKFile type="UnstructuredGrid"  version="0.1"  >
<UnstructuredGrid>
<Piece  NumberOfPoints="4225" NumberOfCells="8192">
<Points>
<DataArray  type="Float64"  NumberOfComponents="3"  format="ascii">0 0 0  0.015625 0 0  0.03125 0 0  0.046875 0 0  0.0625 0 0  0.078125 0 0  0.09375 0 0  0.109375 0 0  0.125 0 0  0.140625 0 0  0.15625 0 0  0.171875 0 0  0.1875 0 0  0.203125 0 0  0.21875 0 0  0.234375 0 0  0.25 0 0  0.265625 0 0  0.28125 0 0  0.296875 0 0  0.3125 0 0  0.328125 0 0  0.34375 0 0  0.359375 0 0  0.375 0 0  0.390625 0 0  0.40625 0 0  0.421875 0 0  0.4375 0 0  0.453125 0 0  0.46875 0 0  0.484375 0 0  0.5 0 0  0.515625 0 0  0.53125 0 0  0.546875 0 0  0.5625 0 0  0.578125 0 0  0.59375 0 0  0.609375 0 0  0.625 0 0  0.640625 0 0  0.65625 0 0  0.671875 0 0  0.6875 0 0  0.703125 0 0  0.71875 0 0  0.734375 0 0  0.75 0 0  0.765625 0 0  0.78125 0 0  0.796875 0 0  0.8125 0 0  0.828125 0 0  0.84375 0 0  0.859375 0 0  0.875 0 0  0.890625 0 0  0.90625 0 0  0.921875 0 0  0.9375 0 0  0.953125 0 0  0.96875 0 0  0.984375 0 0  1 0 0  0 0.015625 0  0.015625 0.015625 0  0.03125 0.015625 0  0.046875 0.015625 0  0.0625 0.015625 0  0.078125 0.015625 0  0.09375 0.015625 0  0.109375 0.015625 0  0.125 0.015625 0  0.140625 0.015625 0  0.15625 0.015625 0  0.171875 0.015625 0  0.1875 0.015625 0  0.203125 0.015625 0  0.21875 0.015625 0  0.234375 0.015625 0  0.25 0.015625 0  0.265625 0.015625 0  0.28125 0.015625 0  0.296875 0.015625 0  0.3125 0.015625 0  0.328125 0.015625 0  0.34375 0.015625 0  0.359375 0.015625 0  0.375 0.015625 0  0.390625 0.015625 0  0.40625 0.015625 0  0.421875 0.015625 0  0.4375 0.015625 0  0.453125 0.015625 0  0.46875 0.015625 0  0.484375 0.015625 0  0.5 0.015625 0  0.515625 0.015625 0  0.53125 0.015625 0  0.546875 0.015625 0  0.5625 0.015625 0  0.578125 0.015625 0  0.59375 0.015625 0  0.609375 0.015625 0  0.625 0.015625 0  0.640625 0.015625 0  0.65625 0.015625 0  0.671875 0.015625 0  0.6875 0.015625 0  0.703125 0.015625 0  0.71875 0.015625 0  0.734375 0.015625 0  0.75 0.015625 0  0.765625 0.015625 0  0.78125 0.015625 0  0.796875 0.015625 0  0.8125 0.015625 0  0.828125 0.015625 0  0.84375 0.015625 0  0.859375 0.015625 0  0.875 0.015625 0  0.890625 0.015625 0  0.90625 0.015625 0  0.921875 0.015625 0  0.9375 0.015625 0  0.953125 0.015625 0  0.96875 0.015625 0  0.984375 0.015625 0  1 0.015625 0  0 0.03125 0  0.015625 0.03125 0  0.03125 0.03125 0  0.046875 0.03125 0  0.0625 0.03125 0  0.078125 0.03125 0  0.09375 0.03125 0  0.109375 0.03125 0  0.125 0.03125 0  0.140625 0.03125 0  0.15625 0.03125 0  0.171875 0.03125 0  0.1875 0.03125 0  0.203125 0.03125 0  0.21875 0.03125 0  0.234375 0.03125 0  0.25 0.03125 0  0.265625 0.03125 0  0.28125 0.03125 0  0.296875 0.03125 0  0.3125 0.03125 0  0.328125 0.03125 0  0.34375 0.03125 0  0.359375 0.03125 0  0.375 0.03125 0  0.390625 0.03125 0  0.40625 0.03125 0  0.421875 0.03125 0  0.4375 0.03125 0  0.453125 0.03125 0  0.46875 0.03125 0  0.484375 0.03125 0  0.5 0.03125 0  0.515625 0.03125 0  0.53125 0.03125 0  0.546875 0.03125 0  0.5625 0.03125 0  0.578125 0.03125 0  0.59375 0.03125 0  0.609375 0.03125 0  0.625 0.03125 0  0.640625 0.03125 0  0.65625 0.03125 0  0.671875 0.03125 0  0.6875 0.03125 0  0.703125 0.03125 0  0.71875 0.03125 0  0.734375 0.03125 0  0.75 0.03125 0  0.765625 0.03125 0  0.78125 0.03125 0  0.796875 0.03125 0  0.8125 0.03125 0  0.828125 0.03125 0  0.84375 0.03125 0  0.859375 0.03125 0  0.875 0.03125 0  0.890625 0.03125 0  0.90625 0.03125 0  0.921875 0.03125 0  0.9375 0.03125 0  0.953125 0.03125 0  0.96875 0.03125 0  0.984375 0.03125 0  1 0.03125 0  0 0.046875 0  0.015625 0.046875 0  0.03125 0.046875 0  0.046875 0.046875 0  0.0625 0.046875 0  0.078125 0.046875 0  0.09375 0.046875 0  0.109375 0.046875 0  0.125 0.046875 0  0.140625 0.046875 0  0.15625 0.046875 0  0.171875 0.046875 0  0.1875 0.046875 0  0.203125 0.046875 0  0.21875 0.046875 0  0.234375 0.046875 0  0.25 0.046875 0  0.265625 0.046875 0  0.28125 0.046875 0  0.296875 0.046875 0  0.3125 0.046875 0  0.328125 0.046875 0  0.34375 0.046875 0  0.359375 0.046875 0  0.375 0.046875 0  0.390625 0.046875 0  0.40625 0.046875 0  0.421875 0.046875 0  0.4375 0.046875 0  0.453125 0.046875 0  0.46875 0.046875 0  0.484375 0.046875 0  0.5 0.046875 0  0.515625 0.046875 0  0.53125 0.046875 0  0.546875 0.046875 0  0.5625 0.046875 0  0.578125 0.046875 0  0.59375 0.046875 0  0.609375 0.046875 0  0.625 0.046875 0  0.640625 0.046875 0  0.65625 0.046875 0  0.671875 0.046875 0  0.6875 0.046875 0  0.703125 0.046875 0  0.71875 0.046875 0  0.734375 0.046875 0  0.75 0.046875 0  0.765625 0.046875 0  0.78125 0.046875 0  0.796875 0.046875 0  0.8125 0.046875 0  0.828125 0.046875 0  0.84375 0.046875 0  0.859375 0.046875 0  0.875 0.046875 0  0.890625 0.046875 0  0.90625 0.046875 0  0.921875 0.046875 0  0.9375 0.046875 0  0.953125 0.046875 0  0.96875 0.046875 0  0.984375 0.046875 0  1 0.046875 0  0 0.0625 0  0.015625 0.0625 0  0.03125 0.0625 0  0.046875 0.0625 0  0.0625 0.0625 0  0.078125 0.0625 0  0.09375 0.0625 0  0.109375 0.0625 0  0.125 0.0625 0  0.140625 0.0625 0  0.15625 0.0625 0  0.171875 0.0625 0  0.1875 0.0625 0  0.203125 0.0625 0  0.21875 0.0625 0  0.234375 0.0625 0  0.25 0.0625 0  0.265625 0.0625 0  0.28125 0.0625 0  0.296875 0.0625 0  0.3125 0.0625 0  0.328125 0.0625 0  0.34375 0.0625 0  0.359375 0.0625 0  0.375 0.0625 0  0.390625 0.0625 0  0.40625 0.0625 0  0.421875 0.0625 0  0.4375 0.0625 0  0.453125 0.0625 0  0.46875 0.0625 0  0.484375 0.0625 0  0.5 0.0625 0  0.515625 0.0625 0  0.53125 0.0625 0  0.546875 0.0625 0  0.5625 0.0625 0  0.578125 0.0625 0  0.59375 0.0625 0  0.609375 0.0625 0  0.625 0.0625 0  0.640625 0.0625 0  0.65625 0.0625 0  0.671875 0.0625 0  0.6875 0.0625 0  0.703125 0.0625 0  0.71875 0.0625 0  0.734375 0.0625 0  0.75 0.0625 0  0.765625 0.0625 0  0.78125 0.0625 0  0.796875 0.0625 0  0.8125 0.0625 0  0.828125 0.0625 0  0.84375 0.0625 0  0.859375 0.0625 0  0.875 0.0625 0  0.890625 0.0625 0  0.90625 0.0625 0  0.921875 0.0625 0  0.9375 0.0625 0  0.953125 0.0625 0  0.96875 0.0625 0  0.984375 0.0625 0  1 0.0625 0  0 0.078125 0  0.015625 0.078125 0  0.03125 0.078125 0  0.046875 0.078125 0  0.0625 0.078125 0  0.078125 0.078125 0  0.09375 0.078125 0  0.109375 0.078125 0  0.125 0.078125 0  0.140625 0.078125 0  0.15625 0.078125 0  0.171875 0.078125 0  0.1875 0.078125 0  0.203125 0.078125 0  0.21875 0.078125 0  0.234375 0.078125 0  0.25 0.078125 0  0.265625 0.078125 0  0.28125 0.078125 0  0.296875 0.078125 0  0.3125 0.078125 0  0.328125 0.078125 0  0.34375 0.078125 0  0.359375 0.078125 0  0.375 0.078125 0  0.390625 0.078125 0  0.40625 0.078125 0  0.421875 0.078125 0  0.4375 0.078125 0  0.453125 0.078125 0  0.46875 0.078125 0  0.484375 0.078125 0  0.5 0.078125 0  0.515625 0.078125 0  0.53125 0.078125 0  0.546875 0.078125 0  0.5625 0.078125 0  0.578125 0.078125 0  0.59375 0.078125 0  0.609375 0.078125 0  0.625 0.078125 0  0.640625 0.078125 0  0.65625 0.078125 0  0.671875 0.078125 0  0.6875 0.078125 0  0.703125 0.078125 0  0.71875 0.078125 0  0.734375 0.078125 0  0.75 0.078125 0  0.765625 0.078125 0  0.78125 0.078125 0  0.796875 0.078125 0  0.8125 0.078125 0  0.828125 0.078125 0  0.84375 0.078125 0  0.859375 0.078125 0  0.875 0.078125 0  0.890625 0.078125 0  0.90625 0.078125 0  0.921875 0.078125 0  0.9375 0.078125 0  0.953125 0.078125 0  0.96875 0.078125 0  0.984375 0.078125 0  1 0.078125 0  0 0.09375 0  0.015625 0.09375 0  0.03125 0.09375 0  0.046875 0.09375 0  0.0625 0.09375 0  0.078125 0.09375 0  0.09375 0.09375 0  0.109375 0.09375 0  0.125 0.09375 0  0.140625 0.09375 0  0.15625 0.09375 0  0.171875 0.09375 0  0.1875 0.09375 0  0.203125 0.09375 0  0.21875 0.09375 0  0.234375 0.09375 0  0.25 0.09375 0  0.265625 0.09375 0  0.28125 0.09375 0  0.296875 0.09375 0  0.3125 0.09375 0  0.328125 0.09375 0  0.34375 0.09375 0  0.359375 0.09375 0  0.375 0.09375 0  0.390625 0.09375 0  0.40625 0.09375 0  0.421875 0.09375 0  0.4375 0.09375 0  0.453125 0.09375 0  0.46875 0.09375 0  0.484375 0.09375 0  0.5 0.09375 0  0.515625 0.09375 0  0.53125 0.09375 0  0.546875 0.09375 0  0.5625 0.09375 0  0.578125 0.09375 0  0.59375 0.09375 0  0.609375 0.09375 0  0.625 0.09375 0  0.640625 0.09375 0  0.65625 0.09375 0  0.671875 0.09375 0  0.6875 0.09375 0  0.703125 0.09375 0  0.71875 0.09375 0  0.734375 0.09375 0  0.75 0.09375 0  0.765625 0.09375 0  0.78125 0.09375 0  0.796875 0.09375 0  0.8125 0.09375 0  0.828125 0.09375 0  0.84375 0.09375 0  0.859375 0.09375 0  0.875 0.09375 0  0.890625 0.09375 0  0.90625 0.09375 0  0.921875 0.09375 0  0.9375 0.09375 0  0.953125 0.09375 0  0.96875 0.09375 0  0.984375 0.09375 0  1 0.09375 0  0 0.109375 0  0.015625 0.109375 0  0.03125 0.109375 0  0.046875 0.109375 0  0.0625 0.109375 0  0.078125 0.109375 0  0.09375 0.109375 0  0.109375 0.109375 0  0.125 0.109375 0  0.140625 0.109375 0  0.15625 0.109375 0  0.171875 0.109375 0  0.1875 0.109375 0  0.203125 0.109375 0  0.21875 0.109375 0  0.234375 0.109375 0  0.25 0.109375 0  0.265625 0.109375 0  0.28125 0.109375 0  0.296875 0.109375 0  0.3125 0.109375 0  0.328125 0.109375 0  0.34375 0.109375 0  0.359375 0.109375 0  0.375 0.109375 0  0.390625 0.109375 0  0.40625 0.109375 0  0.421875 0.109375 0  0.4375 0.109375 0  0.453125 0.109375 0  0.46875 0.109375 0  0.484375 0.109375 0  0.5 0.109375 0  0.515625 0.109375 0  0.53125 0.109375 0  0.546875 0.109375 0  0.5625 0.109375 0  0.578125 0.109375 0  0.59375 0.109375 0  0.609375 0.109375 0  0.625 0.109375 0  0.640625 0.109375 0  0.65625 0.109375 0  0.671875 0.109375 0  0.6875 0.109375 0  0.703125 0.109375 0  0.71875 0.109375 0  0.734375 0.109375 0  0.75 0.109375 0  0.765625 0.109375 0  0.78125 0.109375 0  0.796875 0.109375 0  0.8125 0.109375 0  0.828125 0.109375 0  0.84375 0.109375 0  0.859375 0.109375 0  0.875 0.109375 0  0.890625 0.109375 0  0.90625 0.109375 0  0.921875 0.109375 0  0.9375 0.109375 0  0.953125 0.109375 0  0.96875 0.109375 0  0.984375 0.109375 0  1 0.109375 0  0 0.125 0  0.015625 0.125 0  0.03125 0.125 0  0.046875 0.125 0  0.0625 0.125 0  0.078125 0.125 0  0.09375 0.125 0  0.109375 0.125 0  0.125 0.12
[...]
<PointData  Scalars="f_6"> 
<DataArray  type="Float64"  Name="f_6"  format="ascii">-4.4000000000000000e+01  -4.2968750000000000e+01  -4.1937500000000000e+01  -4.0906250000000000e+01  -3.9875000000000000e+01  -3.8843750000000000e+01  -3.7812500000000000e+01  -3.6781250000000000e+01  -3.5750000000000000e+01  -3.4718750000000000e+01  -3.3687500000000000e+01  -3.2656250000000000e+01  -3.1625000000000000e+01  -3.0593749999449436e+01  -2.9562500000000000e+01  -2.8531250000000000e+01  -2.7500000000000000e+01  -2.6468750000000000e+01  -2.5437500000000000e+01  -2.4406250000000000e+01  -2.3375000000000000e+01  -2.2343750000000000e+01  -2.1312500000000000e+01  -2.0281250000000000e+01  -1.9250000000000000e+01  -1.8218750000000000e+01  -1.7187500000000000e+01  -1.6156250000000000e+01  -1.5125000000000000e+01  -1.4093750000000000e+01  -1.3062500000000000e+01  -1.2031250000000000e+01  -1.1000000000000000e+01  -9.9687500000000000e+00  -8.9375000000000000e+00  -7.9062500000000000e+00  -6.8750000000000000e+00  -5.8437500000000311e+00  -4.8125000000000000e+00  -3.7812500000000000e+00  -2.7500000000000000e+00  -1.7187500000000000e+00  -6.8750000000000000e-01  3.4375000000000000e-01  1.3750000000000000e+00  2.4062499994471125e+00  3.4375000000000000e+00  4.4687500000000000e+00  5.5000000000000000e+00  6.5312500000000000e+00  7.5625000000000000e+00  8.5937500000000000e+00  9.6250000000000000e+00  1.0656249993480742e+01  1.1687500000000000e+01  1.2718750000000000e+01  1.3750000000000000e+01  1.4781250000000000e+01  1.5812500000000000e+01  1.6843750000000000e+01  1.7875000000000000e+01  1.8906250000000000e+01  1.9937500000000000e+01  2.0968750000000000e+01  2.2000000000000000e+01  -4.4000000000000000e+01  8.1355473520864092e+04  -1.0918540279896315e+04  2.3773737946526322e+04  5.5651092231238450e+04  -2.1458446928620065e+05  2.0871293862213770e+04  -6.9358459603011754e+04  1.7660723245743720e+05  -2.4143370816342949e+05  5.1437218128490291e+05  4.7878672550989475e+04  -4.4174541892168735e+05  1.6044600520748622e+06  -1.0926732089194406e+06  -1.7757257209700343e+05  -7.6660456312184295e+04  -7.4705925568145802e+04  4.7396096624474812e+04  9.9116183092503547e+04  -1.7520840500731845e+05  1.3911078800710599e+05  -3.0007506167314050e+05  1.1380959653110571e+05  -7.0557280716805637e+05  2.0361582399705118e+06  -6.4348667413548566e+06  5.1065330907567841e+05  -1.3412395677034644e+05  3.7129899284110208e+04  3.2901160093854814e+04  -3.4633228927427263e+04  4.1909851133000899e+04  -1.4453896240240554e+05  6.0961319048889389e+04  -3.0229183329529187e+04  1.1122919347559413e+05  -2.0283363117287279e+05  5.1776617748194328e+05  -5.6752331541652372e+05  1.9498128238970001e+05  -4.9256983133356640e+04  -2.9269077130144298e+04  2.4671013129425213e+04  -1.4870835614376152e+08  -1.2561244537938841e+08  -1.0968218615143868e+08  -1.1533553665727687e+08  -9.0445523545274019e+07  -6.2383488263524130e+07  -5.0904677831268482e+07  -5.4455021210513532e+07  -6.0230315195275396e+07  -1.0382027727561519e+08  6.7197992922513872e+07  2.4460556675238156e+08  -5.0664899958139241e+07  -2.7382819887402743e+07  -3.2582706610269103e+07  -2.5536182335200354e+07  -2.5283145654422529e+07  1.2222405022787876e+07  -1.5526008818339020e+07  -4.1354122727755508e+06  2.2000000000000000e+01  -4.4000000000000000e+01  -5.5135803310445603e+05  -4.9781043021820769e+07  -8.8670149863200217e+07  -9.7522013720902115e+07  -1.7207703713951513e+08  -1.6009402946578580e+08  -1.4981065510457891e+08  -2.8156234373061478e+08  -3.5854219690362549e+08  -1.6863209675951687e+08  -2.1187150437482336e+08  -2.3256411208607349e+08  -2.3622211842758071e+08  -3.3231437713968778e+08  -1.5027810353286260e+08  -2.2521389305838114e+08  1.4486850929652579e+09  -1.6862767472299809e+09  -2.4831955952730637e+09  -2.2127344030871811e+09  -2.0159139315767579e+09  -3.7329373184675817e+09  -6.6023603868623905e+09  -1.2355972705109566e+10  -2.3411332321778893e+10  -8.1255211049805573e+10  8.1971568289226189e+09  -2.1966837767973161e+08  -6.8657618084893429e+08  2.7029604635086942e+08  6.7079480420228529e+08  5.7321024280094156e+09  -1.9285898139563131e+09  4.7463133217468095e+08  1.1782056209432750e+09  1.3803494765554323e+09  -3.6884192158173287e+08  4.9254704370404768e+08  -1.4097803512933004e+09  1.1151330773890800e+09  1.1194572378110229e+10  1.0603006322751524e+09  -6.6586271910350609e+08  -8.7694554217126167e+08  1.4978946515590687e+09  -5.1715355295466316e+08  7.9345789955840516e+08  8.8726811687649822e+08  -3.7168088567472363e+08  -3.4173138139704990e+08  2.1186197152529269e+08  -2.6878582382396229e+07  7.6650989468589574e+07  -1.3650012238176322e+08  -3.1111912596719909e+08  2.7538674239792407e+07  -1.5456996327494299e+08  -7.6795508840564713e+07  -1.1280197537606217e+08  1.1427346300487326e+08  -2.8204773362702018e+08  1.1202266817284082e+08  -4.6981161751153953e+06  2.2000000000000000e+01  -4.4000000000000000e+01  -3.1345194368182699e+05  4.1647177898717970e+06  1.1427389563525188e+08  -1.4626728064270791e+07  -1.3107600866623993e+08  2.1463124497204125e+08  -3.0487829358205616e+08  3.9032690977080894e+08  -2.2151542754959145e+09  -1.8164108427925566e+08  9.9295585817691416e+07  -2.2333540510916501e+08  -2.1580013346490902e+08  1.0611022115345500e+09  -1.7919235523053119e+09  2.8104459147567902e+09  -2.1573536376652014e+08  -8.4375905128121519e+08  9.3127846304244792e+08  -2.3151010495737376e+09  5.3329841516557062e+08  -3.9205339121595531e+09  7.8078738765122585e+09  -2.6548085348155109e+10  3.2689081444423393e+10  5.6003358143980530e+10  -1.5189628435363634e+10  -9.5094683547878609e+09  2.4282029621437275e+10  7.4056959135423870e+09  -3.9719890993519325e+09  -1.7495878155265906e+09  -4.3167935895573521e+09  -2.0638438887013600e+09  -4.5127239697086124e+09  -5.1903174226404858e+09  1.5626173224708543e+09  -2.0126430507922266e+09  -4.1604210273137236e+09  2.3643404059353786e+09  1.5778894696132388e+09  -5.7457244332033930e+09  -1.9546722366655574e+09  8.4439199765874982e+08  -1.7939980946658874e+09  -3.7211179456272461e+07  -3.9489167883633566e+08  -4.6992762923398232e+08  -3.2994780356788790e+08  2.5527565068094128e+08  -3.8780200051586527e+08  -4.1625049158943433e+08  -1.1463781011502811e+08  -1.3371268336632453e+08  -2.6281124881409815e+08  -2.3793587241885865e+08  -2.1329517865886319e+08  4.8655208662443197e+08  -2.2198587192522043e+08  -1.3266171251139951e+09  -3.6004745344586954e+07  -1.2012687296719458e+07  -1.1240667848928151e+08  2.2000000000000000e+01  -4.4000000000000000e+01  -6.6768712164713332e+04  -5.4800739584151581e+07  -4.3724428205604255e+08  -1.7529060492820537e+08  1.3375640603239274e+08  -5.3318210089198565e+08  -9.7695479093431687e+08  -1.5343149010267711e+09  1.1695771554007959e+09  1.4452495058857312e+09  -1.4116555819774771e+09  -5.3457808076320705e+09  4.8906216753814802e+09  -2.5966533022847118e+09  -6.0788519547818959e+07  -2.1038329254907093e+09  -3.6638360340460443e+09  3.8985677017437477e+09  -6.1772080678132629e+09  3.9032860138096180e+09  -2.5190326297101395e+10  2.0213775286360733e+10  -8.8818929752427765e+10  5.9514236829415985e+10  -1.1420379639574501e+10  -4.4703131837475433e+10  -5.6878165205977524e+10  -5.2188087913215988e+10  4.1220992369833130e+10  -7.8107630695120804e+10  -8.5984919128537102e+09  9.4169363798044875e+07  5.8460133776945376e+08  -1.0511660860107343e+09  1.6959279251036457e+10  8.7926811369944382e+09  -2.8194955172993324e+10  -5.1676233174874592e+09  1.4771251311358254e+09  4.3783203316247708e+08  -9.5216534074442697e+08  -8.6478243454208527e+09  2.5276552781077800e+09  -2.1367432664344788e+09  -1.8079745462512484e+09  7.2054948794025874e+08  -5.7707167841864252e+08  2.5112881989759082e+08  8.3258743812718332e+07  3.8759623802054429e+08  -3.7278484981094837e+08  8.7012057435558939e+08  -1.5031644113263527e+08  3.7672697015761328e+08  2.4427330067508215e+08  1.2227647326186757e+09  -2.1758637354961228e+08  -2.4264937938259497e+08  -1.2975418310938564e+08  1.1238243940644422e+09  -1.4703651165313411e+08  9.9229146531648755e+07  2.5308954242961028e+08  2.2000000000000000e+01  -4.4000000000000000e+01  5.9569531451356728e+04  -1.3034485903209087e+08  2.3056848698766872e+07  -1.0455402009174074e+08  -5.3184585945036726e+09  4.7525891221090050e+09  -3.2393381729084201e+09  3.1266208306290755e+09  1.9846200220053859e+09  -4.4447043969938774e+09  -1.8265088866754930e+09  6.8289082951715965e+09  -2.5981957908850341e+09  -5.6845102628075857e+09  1.0826446814876579e+10  -1.2465326753822617e+10  8.6566536979725018e+09  -1.8741153735057976e+10  1.2001256993636072e+10  -1.1777710175642433e+10  3.0744927654132011e+10  -2.9502989829272816e+10  7.2199064876027832e+10  3.6517540494722305e+10  1.3657919147652035e+10  6.0246608137994339e+10  -7.1109171929828682e+09  7.0533635327797974e+10  -6.3483076291915672e+10  1.0615793238404602e+10  -1.8571526093089075e+09  1.0831391254976765e+10  -1.9684448606435151e+09  -8.1018234370499599e+08  -2.7587747101509466e+09  5.5863758527552853e+09  -7.2668770592447901e+08  1.6483013005438526e+10  2.4377614468441062e+09  2.4434839680314082e+08  -6.9991997431640682e+09  -1.7458044756554217e+09  -9.6939628012120652e+08  -6.6482583624941206e+08  2.5503648075447726e+09  -1.4316602659099984e+09  -2.3135154697626531e+08  -2.7629718368896443e+08  -2.2613820081459343e+08  -2.0835491184868360e+08  -4.3536935488759017e+08  -5.8661459658772826e+08  -5.3947716104106438e+08  -3.4378558294295347e+08  -2.9887651953135419e+08  -3.8579669038543475e+08  -4.4480584858589697e+08  3.2453364727142406e+08  -2.7756608995902085e+08  8.7883642148326620e+07  -8.0826557879800344e+08  -5.5067012992535362e+09  5.9174749566810417e+08  2.2000000000000000e+01  -4.4000000000000000e+01  -3.5208086039318376e+04  -1.1959147410028937e+08  1.9368496751729661e+04  1.8283917216131413e+08  1.1785008582879081e+09  -5.5410480631259274e+08  -2.1331499198195234e+07  -7.0075632682444561e+08  -6.1357962005266514e+09  -8.2302371821592653e+08  6.6040198777085218e+09  -1.0670828043720814e+10  -2.9353812677531099e+09  1.1937214869758045e+10  -1.3756771685090858e+10  8.6823058898496647e+09  -8.8701208839437408e+09  5.7327822836175947e+09  -6.7514994133871803e+09  8.6525052595613022e+09  -3.7231290807200943e+10  3.1801251032765404e+10  -4.4424680439535538e+10  -4.7144508618312683e+09  -2.7039768257722908e+10  -3.0355978805284050e+10  -6.7055072473562057e+10  -2.0227346391003578e+10  2.9411300916052032e+10  -7.3266539547761097e+09  -1.2049450030651319e+09  1.3499441783808250e+09  -7.9656516214126596e+09  8.7143122125062714e+09  3.1931928190215263e+09  1.1989205686341305e+10  4.8111351515032606e+09  6.9809163716849632e+09  -4.7941346568149462e+09  1.1782557117331291e+10  4.8563972587450035e+10  -7.7644423646714096e+09  2.3600904483867800e+08  7.3551872682029152e+08  -7.7416610448887670e+08  -6.2597859654107440e+08  8.3511837476849627e+08  3.1217265969810784e+08  3.2478963720410086e+07  2.3585711742566329e+08  -1.2643424586900275e+07  4.2723169294854486e+08  9.9023437407745814e+08  1.0802076057539573e+09  6.7146709477933180e+08  1.6958904920042428e+08  -1.5715788537994561e+08  -4.0415960749942201e+08  8.7427864341713458e+07  -1.2203434736672866e+08  -5.3143802761331409e+07  3.7961863476715851e+08  -5.2232991570571834e+08  2.2000000000000000e+01  -4.4000000000000000e+01  1.8978356421810746e+04  -1.4789928937644091e+08  -8.2212845590924397e+07  -1.6481935199279208e+09  2.7412609106454325e+09  6.9685413025361896e+08  -5.3005333925884686e+09  6.8377571142063236e+09  -7.2090816432428151e+07  6.8623639316185532e+09  -9.4736394106510754e+09  -2.9622790243833890e+09  1.3447053129172293e+10  -1.9522126658465088e+10  1.3689414341374310e+10  -1.6511736979944824e+10  1.4092354517686375e+10  -1.8505119989668663e+10  1.6172031995899487e+10  -3.2489492348275589e+10  4.7311707222761734e+10  -2.5670552204709610e+10  4.0465515941999588e+10  3.0029560681065842e+10  2.0747362685144622e+09  3.0998445685291592e+10  -2.5544884785577011e+10  6.6515715509457596e+10  -1.4003359487117603e+10  -3.4546825472665968e+09  2.9732302713430347e+09  -8.5961488288300533e+09  -5.5976218911456928e+09  3.0574132023442421e+09  -6.4026904768791771e+09  -4.8144856981269159e+09  -1.5184887611229181e+07  -2.0038989707453363e+09  -4.1114068496257505e+09  -5.2334625196364670e+09  -4.4460930565374050e+09  -4.1047932515789246e+10  8.3077294939699917e+09  2.1065390200585670e+09  -1.7983687749543071e+08  1.3896500843555489e+09  -1.4874841644250879e+09  1.0307752558431328e+10  2.3373142630826584e+10  2.3014071204211479e+10  2.0192302729162331e+10  1.5011456442448484e+10  9.4462849646875401e+09  4.8791181256566334e+09  1.8305750931737642e+09  1.2826529879536672e+08  1.2143769445757426e+07  6.3617904764098668e+08  -2.0670279420266962e+08  -1.0241969429539445e+08  1.8176749917792052e+07  1.1070163409384984e+08  2.9498740184463765e+07  2.2000000000000000e+01  -4.4000000000000000e+01  1.7979372306979333e+03  -8.8504432672823399e+07  -1.8614124667022678e+08  2.3130714317540460e+09  -2.7372446806677504e+09  -4.6212356750498180e+09  6.6195392169935856e+09  -1.1939270783804707e+10  -3.8010100376154274e+08  -4.3618547822996006e+09  -4.0548966634147012e+08  1.6417686347928011e+10  -1.7350017689105412e+10  -4.9270745479347289e+08  9.7284615601214943e+09  -6.2225896858883858e+09  -1.4181827177474117e+10  1.0373049605808552e+10  -1.3466600841977169e+10  3.3726080764292755e+10  -2.6058949067651451e+10  2.6324121732567776e+10  -1.7283588198720070e+10  -4.6799890562772430e+10  -3.2919732896815514e+10  -8.7996523402101135e+10  4.7999034476855858e+10  -8.4583964681947851e+09  -7.4657201582392607e+09  -9.0128492220987663e+09  -7.5177473831446762e+09  -5.8511079500486012e+09  1.9504872752551236e+09  -8.1902590992933388e+09  -5.3504634094220734e+09  8.6270042784702551e+08  -4.0016180168011808e+09  -2.6854951620698452e+09  -2.9562299338748817e+09  4.0032154458361397e+09  -7.6031611676024075e+09  5.6494888374221085e+10  -3.0806515414467106e+09  -7.2110250929903495e+08  -7.4327197505319715e+08  -1.7900371331042156e+09  -1.9833382332028575e+09  -2.4033561523228219e+08  -2.3025986548108627e+10  -3.1248954331247974e+10  -2.8089912702065529e+10  -2.4656512171154774e+10  -1.9612282022529846e+10  -1.4070499888319656e+10  -9.3018814319696465e+09  -5.8590997479372005e+09  -3.7536006323753767e+09  -1.3193261426197855e+09  -8.6963045849716985e+08  -5.0492535270254207e+08  -1.8506149610315359e+08  -1.2095024164808923e+08  1.1600248370199332e+08  2.2000000000000000e+01  -4.4000000000000000e+01  -6.0695433508192145e+04  1.0983543317510757e+08  -2.2686030479301369e+08  -3.5601941998059444e+09  -2.5003365507694674e+09  7.5746634970873003e+09  -5.2146785042863674e+09  1.0395782693153202e+10  -1.3398835728410382e+09  -1.7580690774931722e+09  1.3411958654286487e+09  -1.4247692924236660e+10  3.3392475747516584e+08  1.1708096635976663e+09  -1.3931708360685000e+09  -1.0063835728773827e+10  1.5825453888317013e+10  -7.0873625463418036e+09  2.7769146509126900e+10  -3.9934195323715485e+10  2.3100236213293488e+10  -2.0638647908945511e+10  -1.6420804689805016e+10  1.3042357614634833e+09  5.8067400497150588e+08  9.8210951510716156e+10  -1.8167086034843395e+09  -2.1248866263849518e+09  -7.6384995464064808e+09  -9.5434767311737099e+09  4.9580036328155680e+09  7.1935761211140454e+07  -5.3964956566932030e+09  -6.1996264734737453e+09  8.2180690008598938e+09  -2.4830718733598274e+10  4.1586354356055237e+10  -3.8547938810739918e+09  6.2440394840772648e+09  -3.3226314268227253e+09  -1.6945038023325041e+10  -1.6520457844667627e+10  -4.1438898358206086e+09  2.6493676886401243e+09  -2.1116929752014246e+09  -1.3715732226284976e+09  6.8069717082137036e+08  -1.8729386543777444e+09  -1.9229370660697513e+09  2.2077560536820633e+10  1.9076052943200146e+10  2.1105143685558205e+10  1.9550756001742035e+10  1.4973511362325676e+10  9.8790405332609825e+09  5.8083714180466242e+09  3.1084439027558293e+09  1.5932955212028971e+09  6.0183314419210863e+08  1.1417255121464029e+08  -1.1505633803482753e+08  -3.7238989288436532e+08  -9.6811431811409250e+07  2.2000000000000000e+01  -4.4000000000000000e+01  -2.0161664839193330e+04  -2.6017228081478432e+07  -2.2204114419979990e+08  2.4961403797185478e+09  5.6088425629100008e+09  -2.4611356617723751e+09  9.4864726858970814e+09  -6.0587080481604872e+09  -3.3420143375398998e+09  1.9019521416575968e+09  -3.9742298338790412e+09  2.0017209782836366e+09  2.6073871856016273e+09  1.1700526492277298e+09  -6.8946568252438660e+09  1.1047119903325924e+10  -9.0577546829847221e+09  6.5448417966200008e+09  -1.7060657127372917e+10  2.7213267484916389e+10  6.0733324877727365e+08  -2.1593617095324646e+10  1.6538581589627256e+09  1.9998355572850585e+09  1.0825895555798801e+10  1.0839112897677112e+09  1.2888357109417942e+10  -3.4373852199843369e+10  1.3508551800546434e+10  -8.2137747363932266e+09  -1.6968389990850597e+10  -2.4608699629283023e+08  -5.3988798297660484e+09  4.3777256012396908e+09  -1.7784313790388443e+10  -6.6053620781042767e+09  -3.8495825875395904e+09  -6.0174378323569168e+10  -2.9370389379007673e+09  -4.4008206813923912e+09  9.2214389195321465e+09  -5.7939854138442335e+09  8.6898178726915512e+09  -3.1308639182639966e+09  -2.0735869170857582e+09  7.1652416700730741e+08  -1.7428498269869943e+09  -2.0897779962212100e+09  -7.4669702291868687e+08  -2.9197293127005699e+10  -2.4514430780981476e+10  -2.5144046769366802e+10  -2.4182059744650146e+10  -1.9367800805311790e+10  -1.3102882931725876e+10  -7.8919768466629715e+09  -4.4910081538621693e+09  -2.4032342308645458e+09  -1.2560856367069368e+09  -6.7866757041329670e+08  -3.9810181983662933e+08  1.4597682579174668e+08  -8.8750516052840173e+07  2.2000000000000000e+01  -4.4000000000000000e+01  5.3020915266909265e+04  -1.5182537198847282e+08  1.2730669889324415e+08  -8.0833720033871531e+08  -3.0434594105349956e+09  -1.3784943998084921e+08  -5.7270932397897663e+09  5.5433153347015254e+07  8.8526589182455921e+08  -1.6382913063988624e+09  7.8879263683926817e+06  -2.9348586101090937e+09  -2.4481540571326178e+08  -1.0277732291775803e+10  4.2047858944794483e+09  -1.1954756833570326e+10  5.4147513655707512e+09  -3.1385484010739288e+09  -1.0419507188536789e+10  7.9851882802331626e+08  -2.5314574310420609e+10  2.3278717488937416e+09  -1.6670213265832336e+10  -6.8154161177235422e+09  -1.3657305964139676e+09  4.5189989360512362e+09  -1.0673023307479477e+10  2.9953135544641104e+09  -8.0211811683733730e+09  -7.3646839704641514e+09  2.9527277696925001e+09  3.4430628415524988e+09  -2.5517618180735979e+09  -7.5072447995248833e+09  -6.2713791989458561e+09  -1.2370819863329941e+10  3.8297672185171800e+09  -1.8286161298976765e+09  4.2018972896258469e+10  9.7125245563690674e+10  -3.4371075708896973e+10  -6.4618604327633162e+09  -6.9567046870743771e+09  6.3317041039335251e+09  -4.6178965971670336e+08  -1.7435033033516204e+09  -1.8077922604542785e+09  1.2585814874631609e+08  1.8236799020409988e+10  1.8750560112968529e+10  1.3488103120770905e+10  1.7044716312135906e+10  1.8248338240568554e+10  1.6725541022382174e+10  1.1185473511984386e+10  5.8038959852113361e+09  2.3804179948259215e+09  6.7627191950840271e+08  -4.7135723777273573e+07  -2.5341420812532443e+08  7.7895564944849938e+07  -1.8472017907283437e+08  -9.4283162897703350e+07  2.2000000000000000e+01  -4.4000000000000000e+01  -5.4236225807784227e+04  -1.4577716613399804e+08  -1.9923523256967604e+08  -6.5294977777491808e+08  -3.8721758571507886e+07  -4.3010433615765343e+09  1.7655859126845627e+09  1.5605479749930201e+09  -4.0974209694987326e+09  1.4320770624754028e+09  -3.7678650224685621e+08  -7.0650528869845829e+09  -2.2618075343694439e+09  8.1940599244278927e+09  -4.3560862260763454e+09  1.1028050288381790e+10  -7.3282581567146559e+09  -8.3036583109734802e+09  1.0566196386550716e+10  -3.8029201623196983e+09  2.4369856084128323e+09  1.3860931695138348e+10  -1.2580122835333290e+10  8.1935190153651543e+09  -1.8679774525898557e+09  -3.6341337983157837e+08  -9.4535513891146774e+09  3.3376869096577616e+09  -8.227064842