<?xml version="1.0"?>
<VTKFile type="UnstructuredGrid"  version="0.1"  >
<UnstructuredGrid>
<Piece  NumberOfPoints="441" NumberOfCells="800">
<Points>
<DataArray  type="Float64"  NumberOfComponents="3"  format="ascii">0 0 0  0.05 0 0  0.1 0 0  0.15 0 0  0.2 0 0  0.25 0 0  0.3 0 0  0.35 0 0  0.4 0 0  0.45 0 0  0.5 0 0  0.55 0 0  0.6 0 0  0.65 0 0  0.7 0 0  0.75 0 0  0.8 0 0  0.85 0 0  0.9 0 0  0.95 0 0  1 0 0  0 0.05 0  0.05 0.05 0  0.1 0.05 0  0.15 0.05 0  0.2 0.05 0  0.25 0.05 0  0.3 0.05 0  0.35 0.05 0  0.4 0.05 0  0.45 0.05 0  0.5 0.05 0  0.55 0.05 0  0.6 0.05 0  0.65 0.05 0  0.7 0.05 0  0.75 0.05 0  0.8 0.05 0  0.85 0.05 0  0.9 0.05 0  0.95 0.05 0  1 0.05 0  0 0.1 0  0.05 0.1 0  0.1 0.1 0  0.15 0.1 0  0.2 0.1 0  0.25 0.1 0  0.3 0.1 0  0.35 0.1 0  0.4 0.1 0  0.45 0.1 0  0.5 0.1 0  0.55 0.1 0  0.6 0.1 0  0.65 0.1 0  0.7 0.1 0  0.75 0.1 0  0.8 0.1 0  0.85 0.1 0  0.9 0.1 0  0.95 0.1 0  1 0.1 0  0 0.15 0  0.05 0.15 0  0.1 0.15 0  0.15 0.15 0  0.2 0.15 0  0.25 0.15 0  0.3 0.15 0  0.35 0.15 0  0.4 0.15 0  0.45 0.15 0  0.5 0.15 0  0.55 0.15 0  0.6 0.15 0  0.65 0.15 0  0.7 0.15 0  0.75 0.15 0  0.8 0.15 0  0.85 0.15 0  0.9 0.15 0  0.95 0.15 0  1 0.15 0  0 0.2 0  0.05 0.2 0  0.1 0.2 0  0.15 0.2 0  0.2 0.2 0  0.25 0.2 0  0.3 0.2 0  0.35 0.2 0  0.4 0.2 0  0.45 0.2 0  0.5 0.2 0  0.55 0.2 0  0.6 0.2 0  0.65 0.2 0  0.7 0.2 0  0.75 0.2 0  0.8 0.2 0  0.85 0.2 0  0.9 0.2 0  0.95 0.2 0  1 0.2 0  0 0.25 0  0.05 0.25 0  0.1 0.25 0  0.15 0.25 0  0.2 0.25 0  0.25 0.25 0  0.3 0.25 0  0.35 0.25 0  0.4 0.25 0  0.45 0.25 0  0.5 0.25 0  0.55 0.25 0  0.6 0.25 0  0.65 0.25 0  0.7 0.25 0  0.75 0.25 0  0.8 0.25 0  0.85 0.25 0  0.9 0.25 0  0.95 0.25 0  1 0.25 0  0 0.3 0  0.05 0.3 0  0.1 0.3 0  0.15 0.3 0  0.2 0.3 0  0.25 0.3 0  0.3 0.3 0  0.35 0.3 0  0.4 0.3 0  0.45 0.3 0  0.5 0.3 0  0.55 0.3 0  0.6 0.3 0  0.65 0.3 0  0.7 0.3 0  0.75 0.3 0  0.8 0.3 0  0.85 0.3 0  0.9 0.3 0  0.95 0.3 0  1 0.3 0  0 0.35 0  0.05 0.35 0  0.1 0.35 0  0.15 0.35 0  0.2 0.35 0  0.25 0.35 0  0.3 0.35 0  0.35 0.35 0  0.4 0.35 0  0.45 0.35 0  0.5 0.35 0  0.55 0.35 0  0.6 0.35 0  0.65 0.35 0  0.7 0.35 0  0.75 0.35 0  0.8 0.35 0  0.85 0.35 0  0.9 0.35 0  0.95 0.35 0  1 0.35 0  0 0.4 0  0.05 0.4 0  0.1 0.4 0  0.15 0.4 0  0.2 0.4 0  0.25 0.4 0  0.3 0.4 0  0.35 0.4 0  0.4 0.4 0  0.45 0.4 0  0.5 0.4 0  0.55 0.4 0  0.6 0.4 0  0.65 0.4 0  0.7 0.4 0  0.75 0.4 0  0.8 0.4 0  0.85 0.4 0  0.9 0.4 0  0.95 0.4 0  1 0.4 0  0 0.45 0  0.05 0.45 0  0.1 0.45 0  0.15 0.45 0  0.2 0.45 0  0.25 0.45 0  0.3 0.45 0  0.35 0.45 0  0.4 0.45 0  0.45 0.45 0  0.5 0.45 0  0.55 0.45 0  0.6 0.45 0  0.65 0.45 0  0.7 0.45 0  0.75 0.45 0  0.8 0.45 0  0.85 0.45 0  0.9 0.45 0  0.95 0.45 0  1 0.45 0  0 0.5 0  0.05 0.5 0  0.1 0.5 0  0.15 0.5 0  0.2 0.5 0  0.25 0.5 0  0.3 0.5 0  0.35 0.5 0  0.4 0.5 0  0.45 0.5 0  0.5 0.5 0  0.55 0.5 0  0.6 0.5 0  0.65 0.5 0  0.7 0.5 0  0.75 0.5 0  0.8 0.5 0  0.85 0.5 0  0.9 0.5 0  0.95 0.5 0  1 0.5 0  0 0.55 0  0.05 0.55 0  0.1 0.55 0  0.15 0.55 0  0.2 0.55 0  0.25 0.55 0  0.3 0.55 0  0.35 0.55 0  0.4 0.55 0  0.45 0.55 0  0.5 0.55 0  0.55 0.55 0  0.6 0.55 0  0.65 0.55 0  0.7 0.55 0  0.75 0.55 0  0.8 0.55 0  0.85 0.55 0  0.9 0.55 0  0.95 0.55 0  1 0.55 0  0 0.6 0  0.05 0.6 0  0.1 0.6 0  0.15 0.6 0  0.2 0.6 0  0.25 0.6 0  0.3 0.6 0  0.35 0.6 0  0.4 0.6 0  0.45 0.6 0  0.5 0.6 0  0.55 0.6 0  0.6 0.6 0  0.65 0.6 0  0.7 0.6 0  0.75 0.6 0  0.8 0.6 0  0.85 0.6 0  0.9 0.6 0  0.95 0.6 0  1 0.6 0  0 0.65 0  0.05 0.65 0  0.1 0.65 0  0.15 0.65 0  0.2 0.65 0  0.25 0.65 0  0.3 0.65 0  0.35 0.65 0  0.4 0.65 0  0.45 0.65 0  0.5 0.65 0  0.55 0.65 0  0.6 0.65 0  0.65 0.65 0  0.7 0.65 0  0.75 0.65 0  0.8 0.65 0  0.85 0.65 0  0.9 0.65 0  0.95 0.65 0  1 0.65 0  0 0.7 0  0.05 0.7 0  0.1 0.7 0  0.15 0.7 0  0.2 0.7 0  0.25 0.7 0  0.3 0.7 0  0.35 0.7 0  0.4 0.7 0  0.45 0.7 0  0.5 0.7 0  0.55 0.7 0  0.6 0.7 0  0.65 0.7 0  0.7 0.7 0  0.75 0.7 0  0.8 0.7 0  0.85 0.7 0  0.9 0.7 0  0.95 0.7 0  1 0.7 0  0 0.75 0  0.05 0.75 0  0.1 0.75 0  0.15 0.75 0  0.2 0.75 0  0.25 0.75 0  0.3 0.75 0  0.35 0.75 0  0.4 0.75 0  0.45 0.75 0  0.5 0.75 0  0.55 0.75 0  0.6 0.75 0  0.65 0.75 0  0.7 0.75 0  0.75 0.75 0  0.8 0.75 0  0.85 0.75 0  0.9 0.75 0  0.95 0.75 0  1 0.75 0  0 0.8 0  0.05 0.8 0  0.1 0.8 0  0.15 0.8 0  0.2 0.8 0  0.25 0.8 0  0.3 0.8 0  0.35 0.8 0  0.4 0.8 0  0.45 0.8 0  0.5 0.8 0  0.55 0.8 0  0.6 0.8 0  0.65 0.8 0  0.7 0.8 0  0.75 0.8 0  0.8 0.8 0  0.85 0.8 0  0.9 0.8 0  0.95 0.8 0  1 0.8 0  0 0.85 0  0.05 0.85 0  0.1 0.85 0  0.15 0.85 0  0.2 0.85 0  0.25 0.85 0  0.3 0.85 0  0.35 0.85 0  0.4 0.85 0  0.45 0.85 0  0.5 0.85 0  0.55 0.85 0  0.6 0.85 0  0.65 0.85 0  0.7 0.85 0  0.75 0.85 0  0.8 0.85 0  0.85 0.85 0  0.9 0.85 0  0.95 0.85 0  1 0.85 0  0 0.9 0  0.05 0.9 0  0.1 0.9 0  0.15 0.9 0  0.2 0.9 0  0.25 0.9 0  0.3 0.9 0  0.35 0.9 0  0.4 0.9 0  0.45 0.9 0  0.5 0.9 0  0.55 0.9 0  0.6 0.9 0  0.65 0.9 0  0.7 0.9 0  0.75 0.9 0  0.8 0.9 0  0.85 0.9 0  0.9 0.9 0  0.95 0.9 0  1 0.9 0  0 0.95 0  0.05 0.95 0  0.1 0.95 0  0.15 0.95 0  0.2 0.95 0  0.25 0.95 0  0.3 0.95 0  0.35 0.95 0  0.4 0.95 0  0.45 0.95 0  0.5 0.95 0  0.55 0.95 0  0.6 0.95 0  0.65 0.95 0  0.7 0.95 0  0.75 0.95 0  0.8 0.95 0  0.85 0.95 0  0.9 0.95 0  0.95 0.95 0  1 0.95 0  0 1 0  0.05 1 0  0.1 1 0  0.15 1 0  0.2 1 0  0.25 1 0  0.3 1 0  0.35 1 0  0.4 1 0  0.45 1 0  0.5 1 0  0.55 1 0  0.6 1 0  0.65 1 0  0.7 1 0  0.75 1 0  0.8 1 0  0.85 1 0  0.9 1 0  0.95 1 0  1 1 0  </DataArray>
</Points>
<Cells>
[...]
<PointData  Scalars="f_6"> 
<DataArray  type="Float64"  Name="f_6"  format="ascii">-2.0000000000000000e+00  -1.8499999999999999e+00  -1.7000000000000000e+00  -1.5500000000000000e+00  -1.4000000000000001e+00  -1.2500000000000000e+00  -1.0999999999999999e+00  -9.5000000000000007e-01  -7.9999999999999982e-01  -6.5000000000000013e-01  -5.0000000000000000e-01  -3.4999999999999987e-01  -2.0000000000000007e-01  -4.9999999999999933e-02  9.9999999999999867e-02  2.5000000000000000e-01  4.0000000000000013e-01  5.4999999999999993e-01  7.0000000000000007e-01  8.4999999999999987e-01  1.0000000000000000e+00  -2.0000000000000000e+00  -1.2954724983137964e+00  -1.0334877230995205e+00  -9.0499553433912017e-01  -8.2495953551243761e-01  -7.6142547775344271e-01  -6.9896008972413082e-01  -6.2959857166648370e-01  -5.4972516446416797e-01  -4.5827287785844140e-01  -3.5553353636487206e-01  -2.4249953912448893e-01  -1.2042889380979897e-01  9.2404699970752673e-03  1.4476061496694420e-01  2.8412437526784912e-01  4.2560539623193960e-01  5.6834109270466271e-01  7.1185126453247383e-01  8.5581869658897314e-01  1.0000000000000000e+00  -2.0000000000000000e+00  -1.0374518063082672e+00  -7.9119297413393330e-01  -6.9174314632674128e-01  -6.3419259381515636e-01  -5.8879332191734612e-01  -5.4313974463564507e-01  -4.9077989373380132e-01  -4.2819854149984893e-01  -3.5372207525436744e-01  -2.6692493593483979e-01  -1.6827001212634571e-01  -5.8818192911425468e-02  5.9810871910386754e-02  1.8552633532107612e-01  3.1613148987251266e-01  4.4995611695524629e-01  5.8590771005423725e-01  7.2324526883625895e-01  8.6142352182341853e-01  1.0000000000000000e+00  -2.0000000000000000e+00  -9.0206662084556943e-01  -6.8229828134060533e-01  -5.9882553246083037e-01  -5.4853910532356254e-01  -5.0657166254593722e-01  -4.6330861412184327e-01  -4.1370922451374109e-01  -3.5481469453659531e-01  -2.8499738216186454e-01  -2.0369281950406934e-01  -1.1116977173839117e-01  -8.4158514183294772e-03  1.0305094611855974e-01  2.2140236453446088e-01  3.4491913194587903e-01  4.7217987166229519e-01  6.0208836172078084e-01  7.3379857893490608e-01  8.6663012186844179e-01  1.0000000000000000e+00  -2.0000000000000000e+00  -8.2472087864091315e-01  -6.2488475784957753e-01  -5.4928053010456235e-01  -5.0101876232851084e-01  -4.5850009637304984e-01  -4.1378874677368516e-01  -3.6285342783946423e-01  -3.0337372664324458e-01  -2.3408936945349532e-01  -1.5460189234776553e-01  -6.5231681729654947e-02  3.3175219943087315e-02  1.3940639944772068e-01  2.5211304475232887e-01  3.6996280171424717e-01  4.9175587602727427e-01  6.1646728623168490e-01  7.4323056331414183e-01  8.7129838671544291e-01  1.0000000000000000e+00  -2.0000000000000000e+00  -7.7844156757851046e-01  -5.9144288613633744e-01  -5.1937009950792135e-01  -4.7098634700325809e-01  -4.2653862789993691e-01  -3.7915845296734069e-01  -3.2565634669052967e-01  -2.6434847409961665e-01  -1.9442165032154515e-01  -1.1565660713790696e-01  -2.8330876568780670e-02  6.6942013472613221e-02  1.6928638697690648e-01  2.7768061331288696e-01  3.9106315413150666e-01  5.0841354450086995e-01  6.2879434386454214e-01  7.5135800137453423e-01  8.7533286167918845e-01  1.0000000000000000e+00  -2.0000000000000000e+00  -7.5016479407291370e-01  -5.7078230315154488e-01  -5.0001652391449947e-01  -4.5059826197541930e-01  -4.0376174006377091e-01  -3.5349193393604561e-01  -2.9736176175192469e-01  -2.3425063591602172e-01  -1.6361354898337477e-01  -8.5272009313536470e-02  6.2276911982582473e-04  9.3637323539239981e-02  1.9311652167440480e-01  2.9825986739080590e-01  4.0819565699802263e-01  5.2204080398015673e-01  6.3893854335107869e-01  7.5807423664026474e-01  8.7867505862677575e-01  1.0000000000000000e+00  -1.9999999999999998e+00  -7.3269036450048897e-01  -5.5751172323211728e-01  -4.8703983011056168e-01  -4.3632626665156116e-01  -3.8718690798840616e-01  -3.3438733990696135e-01  -2.7614619244080346e-01  -2.1167875882917087e-01  -1.4050990038239577e-01  -6.2440650252689904e-02  2.2456638822380220e-02  1.1386798989011619e-01  2.1128250879066668e-01  3.1404667757790922e-01  4.2141880248962066e-01  5.3261547107065554e-01  6.4684478891935060e-01  7.6332534320867018e-01  8.8129313618764937e-01  1.0000000000000000e+00  -2.0000000000000000e+00  -7.2175012986025155e-01  -5.4870430778885826e-01  -4.7821997769634550e-01  -4.2638727963121570e-01  -3.7545432178412985e-01  -3.2080969639947121e-01  -2.6115690927515672e-01  -1.9580830657746257e-01  -1.2430664346434760e-01  -4.6437330137207425e-02  3.7776446532268547e-02  1.2809548840817805e-01  2.2409884602023639e-01  3.2522553164054346e-01  4.3081740431189541e-01  5.4015748889349402e-01  6.5249979804699731e-01  7.6708921108741657e-01  8.8317214291515167e-01  1.0000000000000000e+00  -2.0000000000000000e+00  -7.1481932982572294e-01  -5.4269724496486882e-01  -4.7230294692793906e-01  -4.1985324432375282e-01  -3.6789167567579262e-01  -3.1224021463163643e-01  -2.5186344168288960e-01  -1.8609091474117528e-01  -1.1447103676032461e-01  -3.6778473364060614e-02  4.6990989035723206e-02  1.3663867119009127e-01  2.3179185524155732e-01  3.3193919865213301e-01  4.3646779422392340e-01  5.4469728214442770e-01  6.5590770328772874e-01  7.6935956017884743e-01  8.8430622438554130e-01  1.0000000000000000e+00  -2.0000000000000000e+00  -7.1058634259304865e-01  -5.3862102288114633e-01  -4.6862755474098444e-01  -4.1626865939160945e-01  -3.6418131944348603e-01  -3.0839604476839222e-01  -2.4796572808359008e-01  -1.8222087394402442e-01  -1.1070811547171493e-01  -3.3196515594433547e-02  5.0327311784593438e-02  1.3967635207490653e-01  2.3449070510376901e-01  3.3427161350250767e-01  4.3841729178723726e-01  5.4625614217256468e-01  6.5707417278064217e-01  7.7013510195470358e-01  8.8469319444816497e-01  1.0000000000000000e+00  -2.0000000000000000e+00  -7.0871775556565353e-01  -5.3621462882611093e-01  -4.6698034568339902e-01  -4.1548918652060024e-01  -3.6424302488050569e-01  -3.0919691691485646e-01  -2.4938255193905387e-01  -1.8411873747961777e-01  -1.1294403558807721e-01  -3.5626785326552016e-02  4.7838421622177357e-02  1.3724872022117232e-01  2.3222299959610415e-01  3.3223925846689140e-01  4.3667361724995374e-01  5.4483582197795100e-01  6.5599774370757036e-01  7.6941348041115942e-01  8.8433145145241465e-01  1.0000000000000000e+00  -2.0000000000000000e+00  -7.0979183532739787e-01  -5.3577340900954218e-01  -4.6755083988356544e-01  -4.1763539175378850e-01  -3.6818985390435760e-01  -3.1476604607147407e-01  -2.5624882527815107e-01  -1.9192748844731544e-01  -1.2132250407442406e-01  -4.4205011745874538e-02  3.9404439809495533e-02  1.2925710759150136e-01  2.2491331459258376e-01  3.2578880351900080e-01  4.3120209676773552e-01  5.4041578478171493e-01  6.5266749966052973e-01  7.6718962452994988e-01  8.8321913095033489e-01  1.0000000000000000e+00  -2.0000000000000000e+00  -7.1536555799498269e-01  -5.3818928373891972e-01  -4.7095387300308139e-01  -4.2312355442149019e-01  -3.7632382737339654e-01  -3.2542858818853082e-01  -2.6891921465476076e-01  -2.0601988695706924e-01  -1.3621348051642912e-01  -5.9275197392017510e-02  2.4727241770177707e-02  1.1546195574275392e-01  2.1238434766372877e-01  3.1480054424879245e-01  4.2193018152027251e-01  5.3295772072064296e-01  6.4706684562288452e-01  7.6345838709777469e-01  8.8135544781897535e-01  1.0000000000000000e+00  -2.0000000000000000e+00  -7.2820546525436447e-01  -5.4512104544983864e-01  -4.7835101143313691e-01  -4.3280515062221475e-01  -3.8921284089544456e-01  -3.4170526465449180e-01  -2.8797955819529197e-01  -2.2701936420977170e-01  -1.5823633364220566e-01  -8.1409539075943949e-02  3.3177689204787397e-03  9.5479125945608256e-02  1.9436157607078475e-01  2.9909884429216838e-01  4.0876036434391916e-01  5.2241807095770010e-01  6.3918377501259094e-01  7.5822163041928836e-01  8.7874427322779325e-01  1.0000000000000000e+00  -2.0000000000000000e+00  -7.5282337465342508e-01  -5.5945975091029299e-01  -4.9179935781289574e-01  -4.4829424414142638e-01  -4.0806752705052146e-01  -3.6444789812644313e-01  -3.1427438926214346e-01  -2.5584167804452040e-01  -1.8830295076667794e-01  -1.1144439419003126e-01  -2.5525752957927306e-02  6.8775203048415764e-02  1.7048398638163345e-01  2.7847289250517709e-01  3.9159436060553537e-01  5.0877042375364656e-01  6.2902855305049121e-01  7.5150008633899434e-01  8.7540001467290940e-01  1.0000000000000000e+00  -2.0000000000000000e+00  -7.9674584687900241e-01  -5.8662227341077267e-01  -5.1526208464778211e-01  -4.7280044286213369e-01  -4.3562491573769524e-01  -3.9580136617673140e-01  -3.4934917659896425e-01  -2.9379623824795131e-01  -2.2768939718995485e-01  -1.5053933395957578e-01  -6.2751589610572700e-02  3.4663452824348781e-02  1.4032627390215593e-01  2.5271437874137148e-01  3.7037376181939863e-01  4.9204071040085889e-01  6.1665992709673267e-01  7.4335014721328863e-01  8.7135569912485011e-01  1.0000000000000000e+00  -2.0000000000000000e+00  -8.7375090410165923e-01  -6.3841630782447778e-01  -5.5781813699541583e-01  -5.1378985929704268e-01  -4.7831281593028879e-01  -4.4135832249660006e-01  -3.9768105383977853e-01  -3.4402837960289456e-01  -2.7849758395073976e-01  -2.0027272992135325e-01  -1.0960472434913660e-01  -7.6960760426035045e-03  1.0344327766126983e-01  2.2168458673875502e-01  3.4514559752982860e-01  4.7235872893365793e-01  6.0222029772229235e-01  7.3388487629257704e-01  8.6667263461320387e-01  1.0000000000000000e+00  -2.0000000000000000e+00  -1.0126010756743782e+00  -7.4535889270291400e-01  -6.4486981070453775e-01  -5.9235969593696280e-01  -5.5394228228029263e-01  -5.1610549460914823e-01  -4.7157658545864772e-01  -4.1599214594415040e-01  -3.4705621395390690e-01  -2.6415366242243871e-01  -1.6783261666939669e-01  -5.9286310306895934e-02  5.9458326046771592e-02  1.8543509302255035e-01  3.1616531262750242e-01  4.5002831008165151e-01  5.8597765856620199e-01  7.2329642562152285e-01  8.6144996303538846e-01  1.0000000000000000e+00  -2.0000000000000000e+00  -1.2811128325236121e+00  -9.9850111593175039e-01  -8.6217411634880048e-01  -7.8209299496337015e-01  -7.2328992593771846e-01  -6.6859161176065784e-01  -6.0824979917981004e-01  -5.3680290176177481e-01  -4.5186980335854132e-01  -3.5336211838672044e-01  -2.4264854099360258e-01  -1.2159049997579897e-01  8.2412438101618791e-03  1.4443214667717291e-01  2.8405224987597971e-01  4.2561154019924347e-01  5.6836560083934207e-01  7.1187320459192338e-01  8.5583079190682787e-01  1.0000000000000000e+00  -2.0000000000000000e+00  -1.8499999999999999e+00  -1.7000000000000000e+00  -1.5500000000000000e+00  -1.4000000000000001e+00  -1.2500000000000000e+00  -1.0999999999999999e+00  -9.5000000000000018e-01  -7.9999999999999982e-01  -6.5000000000000013e-01  -5.0000000000000000e-01  -3.4999999999999987e-01  -2.0000000000000007e-01  -4.9999999999999933e-02  9.9999999999999867e-02  2.5000000000000000e-01  4.0000000000000013e-01  5.4999999999999993e-01  7.0000000000000007e-01  8.4999999999999987e-01  1.0000000000000000e+00  </DataArray> 
</PointData> 
</Piece>
</UnstructuredGrid>
</VTKFile>