<?xml version="1.0"?>
<VTKFile type="UnstructuredGrid"  version="0.1"  >
<UnstructuredGrid>
<Piece  NumberOfPoints="4225" NumberOfCells="8192">
<Points>
<DataArray  type="Float64"  NumberOfComponents="3"  format="ascii">0 0 0  0.015625 0 0  0.03125 0 0  0.046875 0 0  0.0625 0 0  0.078125 0 0  0.09375 0 0  0.109375 0 0  0.125 0 0  0.140625 0 0  0.15625 0 0  0.171875 0 0  0.1875 0 0  0.203125 0 0  0.21875 0 0  0.234375 0 0  0.25 0 0  0.265625 0 0  0.28125 0 0  0.296875 0 0  0.3125 0 0  0.328125 0 0  0.34375 0 0  0.359375 0 0  0.375 0 0  0.390625 0 0  0.40625 0 0  0.421875 0 0  0.4375 0 0  0.453125 0 0  0.46875 0 0  0.484375 0 0  0.5 0 0  0.515625 0 0  0.53125 0 0  0.546875 0 0  0.5625 0 0  0.578125 0 0  0.59375 0 0  0.609375 0 0  0.625 0 0  0.640625 0 0  0.65625 0 0  0.671875 0 0  0.6875 0 0  0.703125 0 0  0.71875 0 0  0.734375 0 0  0.75 0 0  0.765625 0 0  0.78125 0 0  0.796875 0 0  0.8125 0 0  0.828125 0 0  0.84375 0 0  0.859375 0 0  0.875 0 0  0.890625 0 0  0.90625 0 0  0.921875 0 0  0.9375 0 0  0.953125 0 0  0.96875 0 0  0.984375 0 0  1 0 0  0 0.015625 0  0.015625 0.015625 0  0.03125 0.015625 0  0.046875 0.015625 0  0.0625 0.015625 0  0.078125 0.015625 0  0.09375 0.015625 0  0.109375 0.015625 0  0.125 0.015625 0  0.140625 0.015625 0  0.15625 0.015625 0  0.171875 0.015625 0  0.1875 0.015625 0  0.203125 0.015625 0  0.21875 0.015625 0  0.234375 0.015625 0  0.25 0.015625 0  0.265625 0.015625 0  0.28125 0.015625 0  0.296875 0.015625 0  0.3125 0.015625 0  0.328125 0.015625 0  0.34375 0.015625 0  0.359375 0.015625 0  0.375 0.015625 0  0.390625 0.015625 0  0.40625 0.015625 0  0.421875 0.015625 0  0.4375 0.015625 0  0.453125 0.015625 0  0.46875 0.015625 0  0.484375 0.015625 0  0.5 0.015625 0  0.515625 0.015625 0  0.53125 0.015625 0  0.546875 0.015625 0  0.5625 0.015625 0  0.578125 0.015625 0  0.59375 0.015625 0  0.609375 0.015625 0  0.625 0.015625 0  0.640625 0.015625 0  0.65625 0.015625 0  0.671875 0.015625 0  0.6875 0.015625 0  0.703125 0.015625 0  0.71875 0.015625 0  0.734375 0.015625 0  0.75 0.015625 0  0.765625 0.015625 0  0.78125 0.015625 0  0.796875 0.015625 0  0.8125 0.015625 0  0.828125 0.015625 0  0.84375 0.015625 0  0.859375 0.015625 0  0.875 0.015625 0  0.890625 0.015625 0  0.90625 0.015625 0  0.921875 0.015625 0  0.9375 0.015625 0  0.953125 0.015625 0  0.96875 0.015625 0  0.984375 0.015625 0  1 0.015625 0  0 0.03125 0  0.015625 0.03125 0  0.03125 0.03125 0  0.046875 0.03125 0  0.0625 0.03125 0  0.078125 0.03125 0  0.09375 0.03125 0  0.109375 0.03125 0  0.125 0.03125 0  0.140625 0.03125 0  0.15625 0.03125 0  0.171875 0.03125 0  0.1875 0.03125 0  0.203125 0.03125 0  0.21875 0.03125 0  0.234375 0.03125 0  0.25 0.03125 0  0.265625 0.03125 0  0.28125 0.03125 0  0.296875 0.03125 0  0.3125 0.03125 0  0.328125 0.03125 0  0.34375 0.03125 0  0.359375 0.03125 0  0.375 0.03125 0  0.390625 0.03125 0  0.40625 0.03125 0  0.421875 0.03125 0  0.4375 0.03125 0  0.453125 0.03125 0  0.46875 0.03125 0  0.484375 0.03125 0  0.5 0.03125 0  0.515625 0.03125 0  0.53125 0.03125 0  0.546875 0.03125 0  0.5625 0.03125 0  0.578125 0.03125 0  0.59375 0.03125 0  0.609375 0.03125 0  0.625 0.03125 0  0.640625 0.03125 0  0.65625 0.03125 0  0.671875 0.03125 0  0.6875 0.03125 0  0.703125 0.03125 0  0.71875 0.03125 0  0.734375 0.03125 0  0.75 0.03125 0  0.765625 0.03125 0  0.78125 0.03125 0  0.796875 0.03125 0  0.8125 0.03125 0  0.828125 0.03125 0  0.84375 0.03125 0  0.859375 0.03125 0  0.875 0.03125 0  0.890625 0.03125 0  0.90625 0.03125 0  0.921875 0.03125 0  0.9375 0.03125 0  0.953125 0.03125 0  0.96875 0.03125 0  0.984375 0.03125 0  1 0.03125 0  0 0.046875 0  0.015625 0.046875 0  0.03125 0.046875 0  0.046875 0.046875 0  0.0625 0.046875 0  0.078125 0.046875 0  0.09375 0.046875 0  0.109375 0.046875 0  0.125 0.046875 0  0.140625 0.046875 0  0.15625 0.046875 0  0.171875 0.046875 0  0.1875 0.046875 0  0.203125 0.046875 0  0.21875 0.046875 0  0.234375 0.046875 0  0.25 0.046875 0  0.265625 0.046875 0  0.28125 0.046875 0  0.296875 0.046875 0  0.3125 0.046875 0  0.328125 0.046875 0  0.34375 0.046875 0  0.359375 0.046875 0  0.375 0.046875 0  0.390625 0.046875 0  0.40625 0.046875 0  0.421875 0.046875 0  0.4375 0.046875 0  0.453125 0.046875 0  0.46875 0.046875 0  0.484375 0.046875 0  0.5 0.046875 0  0.515625 0.046875 0  0.53125 0.046875 0  0.546875 0.046875 0  0.5625 0.046875 0  0.578125 0.046875 0  0.59375 0.046875 0  0.609375 0.046875 0  0.625 0.046875 0  0.640625 0.046875 0  0.65625 0.046875 0  0.671875 0.046875 0  0.6875 0.046875 0  0.703125 0.046875 0  0.71875 0.046875 0  0.734375 0.046875 0  0.75 0.046875 0  0.765625 0.046875 0  0.78125 0.046875 0  0.796875 0.046875 0  0.8125 0.046875 0  0.828125 0.046875 0  0.84375 0.046875 0  0.859375 0.046875 0  0.875 0.046875 0  0.890625 0.046875 0  0.90625 0.046875 0  0.921875 0.046875 0  0.9375 0.046875 0  0.953125 0.046875 0  0.96875 0.046875 0  0.984375 0.046875 0  1 0.046875 0  0 0.0625 0  0.015625 0.0625 0  0.03125 0.0625 0  0.046875 0.0625 0  0.0625 0.0625 0  0.078125 0.0625 0  0.09375 0.0625 0  0.109375 0.0625 0  0.125 0.0625 0  0.140625 0.0625 0  0.15625 0.0625 0  0.171875 0.0625 0  0.1875 0.0625 0  0.203125 0.0625 0  0.21875 0.0625 0  0.234375 0.0625 0  0.25 0.0625 0  0.265625 0.0625 0  0.28125 0.0625 0  0.296875 0.0625 0  0.3125 0.0625 0  0.328125 0.0625 0  0.34375 0.0625 0  0.359375 0.0625 0  0.375 0.0625 0  0.390625 0.0625 0  0.40625 0.0625 0  0.421875 0.0625 0  0.4375 0.0625 0  0.453125 0.0625 0  0.46875 0.0625 0  0.484375 0.0625 0  0.5 0.0625 0  0.515625 0.0625 0  0.53125 0.0625 0  0.546875 0.0625 0  0.5625 0.0625 0  0.578125 0.0625 0  0.59375 0.0625 0  0.609375 0.0625 0  0.625 0.0625 0  0.640625 0.0625 0  0.65625 0.0625 0  0.671875 0.0625 0  0.6875 0.0625 0  0.703125 0.0625 0  0.71875 0.0625 0  0.734375 0.0625 0  0.75 0.0625 0  0.765625 0.0625 0  0.78125 0.0625 0  0.796875 0.0625 0  0.8125 0.0625 0  0.828125 0.0625 0  0.84375 0.0625 0  0.859375 0.0625 0  0.875 0.0625 0  0.890625 0.0625 0  0.90625 0.0625 0  0.921875 0.0625 0  0.9375 0.0625 0  0.953125 0.0625 0  0.96875 0.0625 0  0.984375 0.0625 0  1 0.0625 0  0 0.078125 0  0.015625 0.078125 0  0.03125 0.078125 0  0.046875 0.078125 0  0.0625 0.078125 0  0.078125 0.078125 0  0.09375 0.078125 0  0.109375 0.078125 0  0.125 0.078125 0  0.140625 0.078125 0  0.15625 0.078125 0  0.171875 0.078125 0  0.1875 0.078125 0  0.203125 0.078125 0  0.21875 0.078125 0  0.234375 0.078125 0  0.25 0.078125 0  0.265625 0.078125 0  0.28125 0.078125 0  0.296875 0.078125 0  0.3125 0.078125 0  0.328125 0.078125 0  0.34375 0.078125 0  0.359375 0.078125 0  0.375 0.078125 0  0.390625 0.078125 0  0.40625 0.078125 0  0.421875 0.078125 0  0.4375 0.078125 0  0.453125 0.078125 0  0.46875 0.078125 0  0.484375 0.078125 0  0.5 0.078125 0  0.515625 0.078125 0  0.53125 0.078125 0  0.546875 0.078125 0  0.5625 0.078125 0  0.578125 0.078125 0  0.59375 0.078125 0  0.609375 0.078125 0  0.625 0.078125 0  0.640625 0.078125 0  0.65625 0.078125 0  0.671875 0.078125 0  0.6875 0.078125 0  0.703125 0.078125 0  0.71875 0.078125 0  0.734375 0.078125 0  0.75 0.078125 0  0.765625 0.078125 0  0.78125 0.078125 0  0.796875 0.078125 0  0.8125 0.078125 0  0.828125 0.078125 0  0.84375 0.078125 0  0.859375 0.078125 0  0.875 0.078125 0  0.890625 0.078125 0  0.90625 0.078125 0  0.921875 0.078125 0  0.9375 0.078125 0  0.953125 0.078125 0  0.96875 0.078125 0  0.984375 0.078125 0  1 0.078125 0  0 0.09375 0  0.015625 0.09375 0  0.03125 0.09375 0  0.046875 0.09375 0  0.0625 0.09375 0  0.078125 0.09375 0  0.09375 0.09375 0  0.109375 0.09375 0  0.125 0.09375 0  0.140625 0.09375 0  0.15625 0.09375 0  0.171875 0.09375 0  0.1875 0.09375 0  0.203125 0.09375 0  0.21875 0.09375 0  0.234375 0.09375 0  0.25 0.09375 0  0.265625 0.09375 0  0.28125 0.09375 0  0.296875 0.09375 0  0.3125 0.09375 0  0.328125 0.09375 0  0.34375 0.09375 0  0.359375 0.09375 0  0.375 0.09375 0  0.390625 0.09375 0  0.40625 0.09375 0  0.421875 0.09375 0  0.4375 0.09375 0  0.453125 0.09375 0  0.46875 0.09375 0  0.484375 0.09375 0  0.5 0.09375 0  0.515625 0.09375 0  0.53125 0.09375 0  0.546875 0.09375 0  0.5625 0.09375 0  0.578125 0.09375 0  0.59375 0.09375 0  0.609375 0.09375 0  0.625 0.09375 0  0.640625 0.09375 0  0.65625 0.09375 0  0.671875 0.09375 0  0.6875 0.09375 0  0.703125 0.09375 0  0.71875 0.09375 0  0.734375 0.09375 0  0.75 0.09375 0  0.765625 0.09375 0  0.78125 0.09375 0  0.796875 0.09375 0  0.8125 0.09375 0  0.828125 0.09375 0  0.84375 0.09375 0  0.859375 0.09375 0  0.875 0.09375 0  0.890625 0.09375 0  0.90625 0.09375 0  0.921875 0.09375 0  0.9375 0.09375 0  0.953125 0.09375 0  0.96875 0.09375 0  0.984375 0.09375 0  1 0.09375 0  0 0.109375 0  0.015625 0.109375 0  0.03125 0.109375 0  0.046875 0.109375 0  0.0625 0.109375 0  0.078125 0.109375 0  0.09375 0.109375 0  0.109375 0.109375 0  0.125 0.109375 0  0.140625 0.109375 0  0.15625 0.109375 0  0.171875 0.109375 0  0.1875 0.109375 0  0.203125 0.109375 0  0.21875 0.109375 0  0.234375 0.109375 0  0.25 0.109375 0  0.265625 0.109375 0  0.28125 0.109375 0  0.296875 0.109375 0  0.3125 0.109375 0  0.328125 0.109375 0  0.34375 0.109375 0  0.359375 0.109375 0  0.375 0.109375 0  0.390625 0.109375 0  0.40625 0.109375 0  0.421875 0.109375 0  0.4375 0.109375 0  0.453125 0.109375 0  0.46875 0.109375 0  0.484375 0.109375 0  0.5 0.109375 0  0.515625 0.109375 0  0.53125 0.109375 0  0.546875 0.109375 0  0.5625 0.109375 0  0.578125 0.109375 0  0.59375 0.109375 0  0.609375 0.109375 0  0.625 0.109375 0  0.640625 0.109375 0  0.65625 0.109375 0  0.671875 0.109375 0  0.6875 0.109375 0  0.703125 0.109375 0  0.71875 0.109375 0  0.734375 0.109375 0  0.75 0.109375 0  0.765625 0.109375 0  0.78125 0.109375 0  0.796875 0.109375 0  0.8125 0.109375 0  0.828125 0.109375 0  0.84375 0.109375 0  0.859375 0.109375 0  0.875 0.109375 0  0.890625 0.109375 0  0.90625 0.109375 0  0.921875 0.109375 0  0.9375 0.109375 0  0.953125 0.109375 0  0.96875 0.109375 0  0.984375 0.109375 0  1 0.109375 0  0 0.125 0  0.015625 0.125 0  0.03125 0.125 0  0.046875 0.125 0  0.0625 0.125 0  0.078125 0.125 0  0.09375 0.125 0  0.109375 0.125 0  0.125 0.12
[...]
<PointData  Scalars="f_6"> 
<DataArray  type="Float64"  Name="f_6"  format="ascii">-2.0000000000000000e+00  -1.9531250000000000e+00  -1.9062500000000000e+00  -1.8593750000000000e+00  -1.8125000000000000e+00  -1.7656250000000000e+00  -1.7187500000000000e+00  -1.6718750000000000e+00  -1.6250000000000000e+00  -1.5781250000000000e+00  -1.5312500000000000e+00  -1.4843750000000000e+00  -1.4375000000000000e+00  -1.3906250000000000e+00  -1.3437500000000000e+00  -1.2968750000000000e+00  -1.2500000000000000e+00  -1.2031250000000000e+00  -1.1562500000000000e+00  -1.1093750000000000e+00  -1.0625000000000000e+00  -1.0156250000000000e+00  -9.6875000000000000e-01  -9.2187500000000000e-01  -8.7500000000000000e-01  -8.2812500000000000e-01  -7.8125000000000000e-01  -7.3437500000000000e-01  -6.8750000000000000e-01  -6.4062500000000000e-01  -5.9375000000000000e-01  -5.4687500000000000e-01  -5.0000000000000000e-01  -4.5312500000000000e-01  -4.0625000000000000e-01  -3.5937500000000000e-01  -3.1250000000000000e-01  -2.6562500000000000e-01  -2.1875000000000000e-01  -1.7187500000000000e-01  -1.2500000000000000e-01  -7.8125000000000000e-02  -3.1250000000000000e-02  1.5625000000000000e-02  6.2500000000000000e-02  1.0937500000000000e-01  1.5625000000000000e-01  2.0312500000000000e-01  2.5000000000000000e-01  2.9687500000000000e-01  3.4375000000000000e-01  3.9062500000000000e-01  4.3750000000000000e-01  4.8437500000000000e-01  5.3125000000000000e-01  5.7812500000000000e-01  6.2500000000000000e-01  6.7187500000000000e-01  7.1875000000000000e-01  7.6562500000000000e-01  8.1250000000000000e-01  8.5937500000000000e-01  9.0625000000000000e-01  9.5312500000000000e-01  1.0000000000000000e+00  -2.0000000000000000e+00  -1.9140831389103663e+00  -1.8344334277299639e+00  -1.7597003009655927e+00  -1.6890273438330525e+00  -1.6218025629651824e+00  -1.5575577580393734e+00  -1.4959199541529691e+00  -1.4365842030265641e+00  -1.3792965567478161e+00  -1.3238425317748213e+00  -1.2700388495158428e+00  -1.2177272905381189e+00  -1.1667699951313473e+00  -1.1170457986755487e+00  -1.0684473328500903e+00  -1.0208787087554927e+00  -9.7425365176020962e-01  -9.2849399360817353e-01  -8.8352845220680365e-01  -8.3929164768781017e-01  -7.9572331719327349e-01  -7.5276770156226036e-01  -7.1037308502494767e-01  -6.6849147474180126e-01  -6.2707841061240455e-01  -5.8609289191752567e-01  -5.4549738278171001e-01  -5.0525780052838931e-01  -4.6534331551798785e-01  -4.2572579175345432e-01  -3.8637899916968788e-01  -3.4727871326567500e-01  -3.0840624101465164e-01  -2.6975305222351392e-01  -2.3131327027568238e-01  -1.9306719905511016e-01  -1.5511543323254362e-01  -1.1756966570276305e-01  -8.0060977968412828e-02  -4.5702028133687449e-02  -1.2897135563751105e-02  2.1008740247565827e-02  5.6827530919239012e-02  9.5700840704991338e-02  1.3765835352924147e-01  1.8101442218760339e-01  2.2512390411687125e-01  2.6969720426111682e-01  3.1458434083108522e-01  3.5969809528167196e-01  4.0498302648454304e-01  4.5040142409955802e-01  4.9592625629595455e-01  5.4153731536901550e-01  5.8721896015518216e-01  6.3295871673801407e-01  6.7874636933823784e-01  7.2457334539445828e-01  7.7043228446079814e-01  8.1631672568239100e-01  8.6222087358853450e-01  9.0813941632879547e-01  9.5406737901636773e-01  1.0000000000000000e+00  -2.0000000000000000e+00  -1.8779793753263074e+00  -1.7696974921295434e+00  -1.6720497900064744e+00  -1.5829154851888274e+00  -1.5007720381284326e+00  -1.4244816100571667e+00  -1.3531668959116603e+00  -1.2861346459878604e+00  -1.2228260370564794e+00  -1.1627830396354322e+00  -1.1056248135847762e+00  -1.0510306686862374e+00  -9.9872748045027082e-01  -9.4848022123517572e-01  -9.0008472527648586e-01  -8.5336209061328328e-01  -8.0815430365438057e-01  -7.6432079335878877e-01  -7.2173570489372729e-01  -6.8028574108577822e-01  -6.3986846242189444e-01  -6.0039096766531752e-01  -5.6176890006095026e-01  -5.2392574153899740e-01  -4.8679237105743189e-01  -4.5030686602215259e-01  -4.1441449600378938e-01  -3.7906776835301009e-01  -3.4422625227534781e-01  -3.0985589005400938e-01  -2.7592791544144962e-01  -2.4241903927334010e-01  -2.0932024553267314e-01  -1.7665756469154786e-01  -1.4450619990240793e-01  -1.1288175298654513e-01  -8.1888986814996137e-02  -5.2496004218288407e-02  -2.5124305524575459e-02  1.0803362953640495e-03  2.8142040582685660e-02  5.7442252403989744e-02  8.9800133947434357e-02  1.2581747837148491e-01  1.6454315122437085e-01  2.0502543110430074e-01  2.4665899001876473e-01  2.8908057209651078e-01  3.3206706378155232e-01  3.7547501381105947e-01  4.1920758655694212e-01  4.6319641361773461e-01  5.0739128571524528e-01  5.5175404502492553e-01  5.9625480851369894e-01  6.4086953745863640e-01  6.8557841522047946e-01  7.3036472777879713e-01  7.7521406676634319e-01  8.2011374468023124e-01  8.6505235234295164e-01  9.1001941271027920e-01  9.5500509973667558e-01  1.0000000000000000e+00  -2.0000000000000000e+00  -1.8442489053264863e+00  -1.7108447841646570e+00  -1.5941789026910771e+00  -1.4905021525439606e+00  -1.3971934093869798e+00  -1.3123490562118403e+00  -1.2345419321549027e+00  -1.1626733149405994e+00  -1.0958782241388703e+00  -1.0334625950618324e+00  -9.7486025989945202e-01  -9.1960267889737357e-01  -8.6729713856374691e-01  -8.1761072951745928e-01  -7.7025836691061622e-01  -7.2499370077844361e-01  -6.8160213378114465e-01  -6.3989540471831363e-01  -5.9970735734323977e-01  -5.6089062496922593e-01  -5.2331404007349014e-01  -4.8686063520845263e-01  -4.5142614335344117e-01  -4.1691793885454231e-01  -3.8325439005111506e-01  -3.5036461609883579e-01  -3.1818862182843444e-01  -2.8667765500647613e-01  -2.5579436356913182e-01  -2.2551226651113959e-01  -1.9581476792261868e-01  -1.6669445147706638e-01  -1.3816386864987443e-01  -1.1028584982180385e-01  -8.3355130975247577e-02  -5.7415312795516302e-02  -3.3506926646229597e-02  -1.0996601051528698e-02  1.1378414533807713e-02  3.4328012435128764e-02  5.9431286432037496e-02  8.7814491361319552e-02  1.1911327409502376e-01  1.5322578760914304e-01  1.8967134189245605e-01  2.2788516098646400e-01  2.6740605275737617e-01  3.0789903032460941e-01  3.4912832838755381e-01  3.9092730962407157e-01  4.3317589231443143e-01  4.7578535809919292e-01  5.1868842792236647e-01  5.6183277050174207e-01  6.0517669141605168e-01  6.4868620936235311e-01  6.9233302630624682e-01  7.3609308373390758e-01  7.7994551014554636e-01  8.2387183392923935e-01  8.6785537839276206e-01  9.1188078243269421e-01  9.5593360722005527e-01  1.0000000000000000e+00  -2.0000000000000000e+00  -1.8126011927874963e+00  -1.6570344549884328e+00  -1.5244484288497229e+00  -1.4091781169648010e+00  -1.3073949461039831e+00  -1.2163954553424867e+00  -1.1342009084948288e+00  -1.0593193081884511e+00  -9.9059728085207688e-01  -9.2712419516954481e-01  -8.6816795488889231e-01  -8.1313072495336991e-01  -7.6151761843358590e-01  -7.1291405774613859e-01  -6.6696909271286886e-01  -6.2338290512943206e-01  -5.8189731849092619e-01  -5.4228850811772122e-01  -5.0436135450130881e-01  -4.6794505053123203e-01  -4.3288969103019576e-01  -3.9906365832675794e-01  -3.6635168098761239e-01  -3.3465349499582425e-01  -3.0388309040361577e-01  -2.7396859040468730e-01  -2.4485285411243671e-01  -2.1649472436144904e-01  -1.8887009464724780e-01  -1.6197135184092942e-01  -1.3580717669143536e-01  -1.1040926734773387e-01  -8.5861337665639678e-02  -6.2071984150897729e-02  -4.0451089397251561e-02  -2.0400898178669136e-02  -9.0435836333503986e-04  1.8777528990379249e-02  3.9563905858993512e-02  6.2239908673756228e-02  8.7440601349016031e-02  1.1527115251422716e-01  1.4561268346219802e-01  1.7830105607760743e-01  2.1303126774984640e-01  2.4943781819172328e-01  2.8718102969966647e-01  3.2598116805699706e-01  3.6561990981998149e-01  4.0593000398324169e-01  4.4678331497751911e-01  4.8808069854223934e-01  5.2974429737328577e-01  5.7171191764362361e-01  6.1393297728641250e-01  6.5636558226847797e-01  6.9897439690824714e-01  7.4172907070504013e-01  7.8460305615269543e-01  8.2757270249841774e-01  8.7061654486616358e-01  9.1371473140768045e-01  9.5684854671085073e-01  1.0000000000000000e+00  -2.0000000000000000e+00  -1.7828546546622706e+00  -1.6076403130092600e+00  -1.4616244133724707e+00  -1.3370229432017335e+00  -1.2287479654010038e+00  -1.1332976163604673e+00  -1.0481609735008075e+00  -9.7147695024999581e-01  -9.0182791131755302e-01  -8.3810907146853320e-01  -7.7944267039291071e-01  -7.2511972974688710e-01  -6.7455942267099511e-01  -6.2728004803073789e-01  -5.8287786554962984e-01  -5.4101138912356639e-01  -5.0138955600153534e-01  -4.6376270637920125e-01  -4.2791564322209158e-01  -3.9366226700716372e-01  -3.6084143727804718e-01  -3.2931382803451348e-01  -2.9895963257835567e-01  -2.6967704958664573e-01  -2.4138156656672943e-01  -2.1400620613850810e-01  -1.8750320522200670e-01  -1.6184775152046840e-01  -1.3704252864543862e-01  -1.1311591489599669e-01  -9.0106824774593197e-02  -6.8106773234407142e-02  -4.7686909122111917e-02  -2.8919518009492117e-02  -1.1319409224175358e-02  6.1584686336087682e-03  2.4186597774823779e-02  4.3420737174335054e-02  6.4562884157794209e-02  8.7627115051886598e-02  1.1282005777604322e-01  1.4021683388437506e-01  1.6976525116193386e-01  2.0133448548924224e-01  2.3471485483759891e-01  2.6965381433091623e-01  3.0589907979256870e-01  3.4322470238373098e-01  3.8144013885213346e-01  4.2038948151139460e-01  4.5994666507016357e-01  5.0000982371895963e-01  5.4049614538491364e-01  5.8133762541305423e-01  6.2247771781749672e-01  6.6386874551689901e-01  7.0546990835322376e-01  7.4724574602531013e-01  7.8916494126177750e-01  8.3119937504557251e-01  8.7332336716579362e-01  9.1551305162101349e-01  9.5774584821566722e-01  1.0000000000000000e+00  -2.0000000000000000e+00  -1.7548777491393317e+00  -1.5621726056494056e+00  -1.4047512436613523e+00  -1.2725826847972905e+00  -1.1593076314550557e+00  -1.0606473250331423e+00  -9.7358762126808751e-01  -8.9592660052699413e-01  -8.2600766056322572e-01  -7.6255389289633058e-01  -7.0456093125525165e-01  -6.5122516183479184e-01  -6.0189417883780627e-01  -5.5603171702820764e-01  -5.1319228908546366e-01  -4.7300250167650337e-01  -4.3514707779972689e-01  -3.9935826893976112e-01  -3.6540776160993993e-01  -3.3310046292540402e-01  -3.0226974556370184e-01  -2.7277387958258686e-01  -2.4449350091612918e-01  -2.1733007649508626e-01  -1.9120542944481020e-01  -1.6606261632857283e-01  -1.4186944476826560e-01  -1.1862858544691998e-01  -9.6399213139522044e-02  -7.5321947775671666e-02  -5.5433258606628663e-02  -3.7446217521219960e-02  -2.0898233383961295e-02  -4.8869797120114234e-03  1.1106954759588625e-02  2.7960322988038393e-02  4.6332605742032247e-02  6.6155937774343018e-02  8.7639778545961736e-02  1.1088560959995275e-01  1.3599568081889524e-01  1.6301087408529594e-01  1.9189700181192013e-01  2.2255677987982897e-01  2.5483985178039081e-01  2.8856350450177398e-01  3.2353677275596104e-01  3.5957842283322478e-01  3.9652646169342703e-01  4.3424111814003924e-01  4.7260404007278112e-01  5.1151578587852187e-01  5.5089283503435504e-01  5.9066472080618271e-01  6.3077152305362028e-01  6.7116177362839835e-01  7.1179074496243955e-01  7.5261906378119858e-01  7.9361158782353225e-01  8.3473648925630084e-01  8.7596449713042479e-01  9.1726825969491221e-01  9.5862179453080487e-01  1.0000000000000000e+00  -2.0000000000000000e+00  -1.7285652241237375e+00  -1.5202343099910247e+00  -1.3530707590786508e+00  -1.2147296149421662e+00  -1.0975953628538229e+00  -9.9664491637319597e-01  -9.0839366251961362e-01  -8.3032763639778839e-01  -7.6057564113012854e-01  -6.9770911435628247e-01  -6.4061431585990225e-01  -5.8840758801960480e-01  -5.4037738422545001e-01  -4.9594354642655553e-01  -4.5462805211753482e-01  -4.1603360131452705e-01  -3.7982769749710515e-01  -3.4573066827267573e-01  -3.1350657560719958e-01  -2.8295629831975611e-01  -2.5391230175440110e-01  -2.2623479158264106e-01  -1.9980912649145738e-01  -1.7454455603656682e-01  -1.5037446324840853e-01  -1.2725828436243422e-01  -1.0518675738302261e-01  -8.4202229183048025e-02  -6.4472119469680164e-02  -4.6603787119788000e-02  -3.0408068118779340e-02  -1.5312630259788932e-02  -5.3055561822118577e-04  1.4683044163562021e-02  3.0827891304554517e-02  4.8243262816923933e-02  6.7027564430923808e-02  8.7230629635043036e-02  1.0895468265175699e-01  1.3227986398306743e-01  1.5726618181428909e-01  1.8393397982599333e-01  2.1225510212062187e-01  2.4215578043776276e-01  2.7352426790236134e-01  3.0622357913982806e-01  3.4010608389627744e-01  3.7502575449978004e-01  4.1084616694831072e-01  4.4744448928255431e-01  4.8471259120240001e-01  5.2255644468799167e-01  5.6089468806780229e-01  5.9965689972370140e-01  6.3878187996240432e-01  6.7821608098063435e-01  7.1791223408693761e-01  7.5782817631351251e-01  7.9792585699485230e-01  8.3817049702567370e-01  8.7852987240469260e-01  9.1897369549740571e-01  9.5947307021264105e-01  1.0000000000000000e+00  -2.0000000000000000e+00  -1.7038274789104806e+00  -1.4814953208035466e+00  -1.3059693594927422e+00  -1.1625708637091736e+00  -1.0424611734057234e+00  -9.3991118645680782e-01  -8.5099945280518918e-01  -7.7292774106547846e-01  -7.0363293370265345e-01  -6.4155337628812759e-01  -5.8548126107400622e-01  -5.3446560979838964e-01  -4.8774639092097921e-01  -4.4470854018018163e-01  -4.0484912979614512e-01  -3.6775347859541768e-01  -3.3307750298659045e-01  -3.0053453311142175e-01  -2.6988540456537408e-01  -2.4093102118516035e-01  -2.1350685015098256e-01  -1.8747902684456150e-01  -1.6274202432959819e-01  -1.3921832296662900e-01  -1.1686104734129571e-01  -9.5660065448909593e-02  -7.5651972256837063e-02  -5.6966645755664243e-02  -4.0476034436637380e-02  -2.5688582738483352e-02  -1.1608389074708510e-02  2.3862588155562246e-03  1.6939657674391699e-02  3.2578721491271286e-02  4.9278303478143486e-02  6.7157272544179011e-02  8.6303759529696017e-02  1.0678433368314835e-01  1.2866845844295585e-01  1.5201298186627094e-01  1.7685520262920038e-01  2.0320376128376649e-01  2.3103364640681126e-01  2.6028697184823890e-01  2.9087786025146378e-01  3.2270046025889959e-01  3.5563822918954074e-01  3.8957234432130738e-01  4.2438796231748172e-01  4.5997808083946723e-01  4.9624539076627283e-01  5.3310271360324257e-01  5.7047257282516095e-01  6.0828631005841627e-01  6.4648301609166214e-01  6.8500843624479724e-01  7.2381393409116423e-01  7.6285555039106201e-01  8.0209316681669041e-01  8.4148976944684906e-01  8.8101079996526577e-01  9.2062357967737651e-01  9.6029679082235386e-01  1.0000000000000000e+00  -2.0000000000000000e+00  -1.6805853729011890e+00  -1.4456761901819455e+00  -1.2629422899164102e+00  -1.1153870805802506e+00  -9.9299332257207074e-01  -8.8936679853975253e-01  -8.0018227096917949e-01  -7.2238338096335120e-01  -6.5373584102060034e-01  -5.9256153863379202e-01  -5.3757206844232885e-01  -4.8776013882136909e-01  -4.4232629998767808e-01  -4.0062810457572134e-01  -3.6214400947725234e-01  -3.2644726059490203e-01  -2.9318672806274970e-01  -2.6207271528892534e-01  -2.3286643747582753e-01  -2.0537231086914373e-01  -1.7943249643423179e-01  -1.5492337659614588e-01  -1.3175404759034845e-01  -1.0986822367078751e-01  -8.9254373913418533e-02  -6.9973955803438265e-02  -5.2243985243528329e-02  -3.6606415343663649e-02  -2.2689982635488905e-02  -9.4331787515981192e-03  4.0507983048691694e-03  1.8232515192961075e-02  3.3324206008960473e-02  4.9413880648987912e-02  6.6549328572569150e-02  8.4803764351952651e-02  1.0424586746053288e-01  1.2493448712489851e-01  1.4692183557064692e-01  1.7024840240986008e-01  1.9493788555247490e-01  2.2099221627306107e-01  2.4838875037461777e-01  2.7708060029691789e-01  3.0699974099635541e-01  3.3806217245476583e-01  3.7017402828167872e-01  4.0323743127842704e-01  4.3715525716084164e-01  4.7183448099156006e-01  5.0718817741998157e-01  5.4313644613354473e-01  5.7960657957118289e-01  6.1653275159314047e-01  6.5385543810103142e-01  6.9152071381572799e-01  7.2947951564186020e-01  7.6768692434288099e-01  8.0610149043399804e-01  8.4468461397976657e-01  8.8339997833214468e-01  9.2221303242448116e-01  9.6109051339939788e-01  1.0000000000000000e+00  -2.0000000000000000e+00  -1.6587675026151434e+00  -1.4125372403268468e+00  -1.2235687370416080e+00  -1.0725900783032478e+00  -9.4845710309192821e-01  -8.4415209322541185e-01  -7.5497777236523467e-01  -6.7764393810255663e-01  -6.0976396480844652e-01  -5.4955809219315077e-01  -4.9566910424299171e-01  -4.4704286863665610e-01  -4.0284819373799213e-01  -3.6242151966208830e-01  -3.2522785742320176e-01  -2.9083269637604542e-01  -2.5888153843001593e-01  -2.2908490613128094e-01  -2.0120744378858418e-01  -1.7506027126597384e-01  -1.5049614282830970e-01  -1.2740722865833803e-01  -1.0572574438002902e-01  -8.5430569561209146e-02  -6.6579353355828208e-02  -4.9475037227403151e-02  -3.4471045286755916e-02  -2.1069149892908295e-02  -8.3383081471075579e-03  4.6639772666247671e-03  1.8510776405355867e-02  3.3168797642458427e-02  4.8710770519501220e-02  6.5203266523150658e-02  8.2701365811192529e-02  1.0126258883052963e-01  1.2094145883558446e-01  1.4178591178526576e-01  1.6383599430487333e-01  1.8712090665004752e-01  2.1165572089777834e-01  2.3743846788138509e-01  2.6444853852168065e-01  2.9264693796845970e-01  3.2197833098227413e-01  3.5237446028212938e-01  3.8375828020398156e-01  4.1604809534988074e-01  4.4916115405589796e-01  4.8301640854594940e-01  5.1753639178854893e-01  5.5264831393977232e-01  5.8828454773288563e-01  6.2438267864193131e-01  6.6088527090359539e-01  6.9773946527522301e-01  7.3489649031766768e-01  7.7231114090460351e-01  8.0994125659665472e-01  8.4774721770607431e-01  8.8569146695906475e-01  9.2373805828900590e-01  9.6185223035075673e-01  1.0000000000000000e+00  -2.0000000000000000e+00  -1.6383086728350238e+00  -1.3818708828368282e+00  -1.1874939511240261e+00  -1.0336928250723922e+00  -9.0825220209078228e-01  -8.0357208809678649e-01  -7.1461328364200949e-01  -6.3787414674578957e-01  -5.7083272333489266e-01  -5.1162073886079584e-01  -4.5882244032688257e-01  -4.1134497414764498e-01  -3.6833188089784386e-01  -3.2910369796221767e-01  -2.9311623343654031e-01  -2.5993074082780743e-01  -2.2919236841742310e-01  -2.0061457953979372e-01  -1.7396813194768529e-01  -1.4907392334112390e-01  -1.2579973696894708e-01  -1.0406165681559215e-01  -8.3831493357480358e-02  -6.5157950505887061e-02  -4.8333898439207844e-02  -3.3698866097523081e-02  -2.0645937770878267e-02  -8.2062319596959109e-03  4.4726813769548771e-03  1.7916619559848877e-02  3.2159532407471096e-02  4.7221128452015544e-02  6.3146811903435365e-02  7.9987049112920941e-02  9.7790279318520676e-02  1.1660376632338888e-01  1.3647146726600962e-01  1.5743170687570671e-01  1.7951532321353325e-01  2.0274350898767829e-01  2.2712562350720589e-01  2.5265739583302033e-01  2.7931999786226003e-01  3.0708028207296612e-01  3.3589218468215215e-01  3.6569905748749604e-01  3.9643653690223718e-01  4.2803551586121641e-01  4.6042485516692044e-01  4.9353360734779061e-01  5.2729266724849255e-01  5.6163587010410998e-01  5.9650061877865579e-01  6.3182814433810386e-01  6.6756350159619493e-01  7.0365538606390132e-01  7.4005583944898368e-01  7.7671989236121064e-01  8.1360517734194227e-01  8.5067153328881151e-01  8.8788061350903380e-01  9.2519550342172086e-01  9.6258034971462358e-01  1.0000000000000000e+00  -2.0000000000000000e+00  -1.6191489739333704e+00  -1.3534959651439966e+00  -1.1544160816487570e+00  -9.9828769170216136e-01  -8.7188226657622236e-01  -7.6705773547023093e-01  -6.7846133207588966e-01  -6.0240055998844677e-01  -5.3623345462760474e-01  -4.7801484040929176e-01  -4.2627935437689579e-01  -3.7990235823462815e-01  -3.3800756736972243e-01  -2.9990393513070629e-01  -2.6504155201230795e-01  -2.3298033311872857e-01  -2.0336761116831920e-01  -1.7592220248549406e-01  -1.5042352705160916e-01  -1.2670536060676788e-01  -1.0465547863146653e-01  -8.4226073029188803e-02  -6.5466529443707247e-02  -4.8630534401412899e-02  -3.4108361447117000e-02  -2.1259255879420434e-02  -9.0455677325710776e-03  3.3964511394996978e-03  1.6518646054774096e-02  3.0370287188344780e-