<?xml version="1.0"?>
<VTKFile type="UnstructuredGrid"  version="0.1"  >
<UnstructuredGrid>
<Piece  NumberOfPoints="441" NumberOfCells="800">
<Points>
<DataArray  type="Float64"  NumberOfComponents="3"  format="ascii">0 0 0  0.05 0 0  0.1 0 0  0.15 0 0  0.2 0 0  0.25 0 0  0.3 0 0  0.35 0 0  0.4 0 0  0.45 0 0  0.5 0 0  0.55 0 0  0.6 0 0  0.65 0 0  0.7 0 0  0.75 0 0  0.8 0 0  0.85 0 0  0.9 0 0  0.95 0 0  1 0 0  0 0.05 0  0.05 0.05 0  0.1 0.05 0  0.15 0.05 0  0.2 0.05 0  0.25 0.05 0  0.3 0.05 0  0.35 0.05 0  0.4 0.05 0  0.45 0.05 0  0.5 0.05 0  0.55 0.05 0  0.6 0.05 0  0.65 0.05 0  0.7 0.05 0  0.75 0.05 0  0.8 0.05 0  0.85 0.05 0  0.9 0.05 0  0.95 0.05 0  1 0.05 0  0 0.1 0  0.05 0.1 0  0.1 0.1 0  0.15 0.1 0  0.2 0.1 0  0.25 0.1 0  0.3 0.1 0  0.35 0.1 0  0.4 0.1 0  0.45 0.1 0  0.5 0.1 0  0.55 0.1 0  0.6 0.1 0  0.65 0.1 0  0.7 0.1 0  0.75 0.1 0  0.8 0.1 0  0.85 0.1 0  0.9 0.1 0  0.95 0.1 0  1 0.1 0  0 0.15 0  0.05 0.15 0  0.1 0.15 0  0.15 0.15 0  0.2 0.15 0  0.25 0.15 0  0.3 0.15 0  0.35 0.15 0  0.4 0.15 0  0.45 0.15 0  0.5 0.15 0  0.55 0.15 0  0.6 0.15 0  0.65 0.15 0  0.7 0.15 0  0.75 0.15 0  0.8 0.15 0  0.85 0.15 0  0.9 0.15 0  0.95 0.15 0  1 0.15 0  0 0.2 0  0.05 0.2 0  0.1 0.2 0  0.15 0.2 0  0.2 0.2 0  0.25 0.2 0  0.3 0.2 0  0.35 0.2 0  0.4 0.2 0  0.45 0.2 0  0.5 0.2 0  0.55 0.2 0  0.6 0.2 0  0.65 0.2 0  0.7 0.2 0  0.75 0.2 0  0.8 0.2 0  0.85 0.2 0  0.9 0.2 0  0.95 0.2 0  1 0.2 0  0 0.25 0  0.05 0.25 0  0.1 0.25 0  0.15 0.25 0  0.2 0.25 0  0.25 0.25 0  0.3 0.25 0  0.35 0.25 0  0.4 0.25 0  0.45 0.25 0  0.5 0.25 0  0.55 0.25 0  0.6 0.25 0  0.65 0.25 0  0.7 0.25 0  0.75 0.25 0  0.8 0.25 0  0.85 0.25 0  0.9 0.25 0  0.95 0.25 0  1 0.25 0  0 0.3 0  0.05 0.3 0  0.1 0.3 0  0.15 0.3 0  0.2 0.3 0  0.25 0.3 0  0.3 0.3 0  0.35 0.3 0  0.4 0.3 0  0.45 0.3 0  0.5 0.3 0  0.55 0.3 0  0.6 0.3 0  0.65 0.3 0  0.7 0.3 0  0.75 0.3 0  0.8 0.3 0  0.85 0.3 0  0.9 0.3 0  0.95 0.3 0  1 0.3 0  0 0.35 0  0.05 0.35 0  0.1 0.35 0  0.15 0.35 0  0.2 0.35 0  0.25 0.35 0  0.3 0.35 0  0.35 0.35 0  0.4 0.35 0  0.45 0.35 0  0.5 0.35 0  0.55 0.35 0  0.6 0.35 0  0.65 0.35 0  0.7 0.35 0  0.75 0.35 0  0.8 0.35 0  0.85 0.35 0  0.9 0.35 0  0.95 0.35 0  1 0.35 0  0 0.4 0  0.05 0.4 0  0.1 0.4 0  0.15 0.4 0  0.2 0.4 0  0.25 0.4 0  0.3 0.4 0  0.35 0.4 0  0.4 0.4 0  0.45 0.4 0  0.5 0.4 0  0.55 0.4 0  0.6 0.4 0  0.65 0.4 0  0.7 0.4 0  0.75 0.4 0  0.8 0.4 0  0.85 0.4 0  0.9 0.4 0  0.95 0.4 0  1 0.4 0  0 0.45 0  0.05 0.45 0  0.1 0.45 0  0.15 0.45 0  0.2 0.45 0  0.25 0.45 0  0.3 0.45 0  0.35 0.45 0  0.4 0.45 0  0.45 0.45 0  0.5 0.45 0  0.55 0.45 0  0.6 0.45 0  0.65 0.45 0  0.7 0.45 0  0.75 0.45 0  0.8 0.45 0  0.85 0.45 0  0.9 0.45 0  0.95 0.45 0  1 0.45 0  0 0.5 0  0.05 0.5 0  0.1 0.5 0  0.15 0.5 0  0.2 0.5 0  0.25 0.5 0  0.3 0.5 0  0.35 0.5 0  0.4 0.5 0  0.45 0.5 0  0.5 0.5 0  0.55 0.5 0  0.6 0.5 0  0.65 0.5 0  0.7 0.5 0  0.75 0.5 0  0.8 0.5 0  0.85 0.5 0  0.9 0.5 0  0.95 0.5 0  1 0.5 0  0 0.55 0  0.05 0.55 0  0.1 0.55 0  0.15 0.55 0  0.2 0.55 0  0.25 0.55 0  0.3 0.55 0  0.35 0.55 0  0.4 0.55 0  0.45 0.55 0  0.5 0.55 0  0.55 0.55 0  0.6 0.55 0  0.65 0.55 0  0.7 0.55 0  0.75 0.55 0  0.8 0.55 0  0.85 0.55 0  0.9 0.55 0  0.95 0.55 0  1 0.55 0  0 0.6 0  0.05 0.6 0  0.1 0.6 0  0.15 0.6 0  0.2 0.6 0  0.25 0.6 0  0.3 0.6 0  0.35 0.6 0  0.4 0.6 0  0.45 0.6 0  0.5 0.6 0  0.55 0.6 0  0.6 0.6 0  0.65 0.6 0  0.7 0.6 0  0.75 0.6 0  0.8 0.6 0  0.85 0.6 0  0.9 0.6 0  0.95 0.6 0  1 0.6 0  0 0.65 0  0.05 0.65 0  0.1 0.65 0  0.15 0.65 0  0.2 0.65 0  0.25 0.65 0  0.3 0.65 0  0.35 0.65 0  0.4 0.65 0  0.45 0.65 0  0.5 0.65 0  0.55 0.65 0  0.6 0.65 0  0.65 0.65 0  0.7 0.65 0  0.75 0.65 0  0.8 0.65 0  0.85 0.65 0  0.9 0.65 0  0.95 0.65 0  1 0.65 0  0 0.7 0  0.05 0.7 0  0.1 0.7 0  0.15 0.7 0  0.2 0.7 0  0.25 0.7 0  0.3 0.7 0  0.35 0.7 0  0.4 0.7 0  0.45 0.7 0  0.5 0.7 0  0.55 0.7 0  0.6 0.7 0  0.65 0.7 0  0.7 0.7 0  0.75 0.7 0  0.8 0.7 0  0.85 0.7 0  0.9 0.7 0  0.95 0.7 0  1 0.7 0  0 0.75 0  0.05 0.75 0  0.1 0.75 0  0.15 0.75 0  0.2 0.75 0  0.25 0.75 0  0.3 0.75 0  0.35 0.75 0  0.4 0.75 0  0.45 0.75 0  0.5 0.75 0  0.55 0.75 0  0.6 0.75 0  0.65 0.75 0  0.7 0.75 0  0.75 0.75 0  0.8 0.75 0  0.85 0.75 0  0.9 0.75 0  0.95 0.75 0  1 0.75 0  0 0.8 0  0.05 0.8 0  0.1 0.8 0  0.15 0.8 0  0.2 0.8 0  0.25 0.8 0  0.3 0.8 0  0.35 0.8 0  0.4 0.8 0  0.45 0.8 0  0.5 0.8 0  0.55 0.8 0  0.6 0.8 0  0.65 0.8 0  0.7 0.8 0  0.75 0.8 0  0.8 0.8 0  0.85 0.8 0  0.9 0.8 0  0.95 0.8 0  1 0.8 0  0 0.85 0  0.05 0.85 0  0.1 0.85 0  0.15 0.85 0  0.2 0.85 0  0.25 0.85 0  0.3 0.85 0  0.35 0.85 0  0.4 0.85 0  0.45 0.85 0  0.5 0.85 0  0.55 0.85 0  0.6 0.85 0  0.65 0.85 0  0.7 0.85 0  0.75 0.85 0  0.8 0.85 0  0.85 0.85 0  0.9 0.85 0  0.95 0.85 0  1 0.85 0  0 0.9 0  0.05 0.9 0  0.1 0.9 0  0.15 0.9 0  0.2 0.9 0  0.25 0.9 0  0.3 0.9 0  0.35 0.9 0  0.4 0.9 0  0.45 0.9 0  0.5 0.9 0  0.55 0.9 0  0.6 0.9 0  0.65 0.9 0  0.7 0.9 0  0.75 0.9 0  0.8 0.9 0  0.85 0.9 0  0.9 0.9 0  0.95 0.9 0  1 0.9 0  0 0.95 0  0.05 0.95 0  0.1 0.95 0  0.15 0.95 0  0.2 0.95 0  0.25 0.95 0  0.3 0.95 0  0.35 0.95 0  0.4 0.95 0  0.45 0.95 0  0.5 0.95 0  0.55 0.95 0  0.6 0.95 0  0.65 0.95 0  0.7 0.95 0  0.75 0.95 0  0.8 0.95 0  0.85 0.95 0  0.9 0.95 0  0.95 0.95 0  1 0.95 0  0 1 0  0.05 1 0  0.1 1 0  0.15 1 0  0.2 1 0  0.25 1 0  0.3 1 0  0.35 1 0  0.4 1 0  0.45 1 0  0.5 1 0  0.55 1 0  0.6 1 0  0.65 1 0  0.7 1 0  0.75 1 0  0.8 1 0  0.85 1 0  0.9 1 0  0.95 1 0  1 1 0  </DataArray>
</Points>
<Cells>
[...]
<PointData  Scalars="f_6"> 
<DataArray  type="Float64"  Name="f_6"  format="ascii">-2.0000000000000000e+00  -1.8499999999999999e+00  -1.7000000000000000e+00  -1.5500000000000000e+00  -1.4000000000000001e+00  -1.2500000000000000e+00  -1.0999999999999999e+00  -9.5000000000000007e-01  -7.9999999999999993e-01  -6.5000000000000013e-01  -5.0000000000000000e-01  -3.4999999999999981e-01  -2.0000000000000007e-01  -4.9999999999999933e-02  9.9999999999999867e-02  2.5000000000000000e-01  4.0000000000000013e-01  5.4999999999999993e-01  7.0000000000000007e-01  8.4999999999999987e-01  1.0000000000000000e+00  -2.0000000000000000e+00  -2.0610731550851177e-01  4.3831619516812019e-02  1.1039399995843832e-01  1.3355778621033773e-01  1.3669367647756045e-01  1.2440654619907993e-01  9.9459209910394530e-02  6.1463477107667086e-02  -5.2908464178239847e-03  -4.9627858671447755e-02  -2.5044312669761468e-02  4.0366403309656337e-02  1.2249466049971794e-01  2.2080605072575965e-01  3.3533160496967124e-01  4.6171488249899617e-01  5.9341167247435944e-01  7.2780105802884631e-01  8.6359383880140972e-01  1.0000000000000000e+00  -2.0000000000000000e+00  8.8105784271742954e-02  2.2529312629385825e-01  2.4148642733243020e-01  2.3987285428485519e-01  2.2989187027429450e-01  2.0821138616421148e-01  1.7687393615164446e-01  1.5043663901799895e-01  1.2714632708394011e-01  1.1125344215357050e-01  1.1875289073682836e-01  1.5945648512495372e-01  2.2581466907529385e-01  3.1013394903061342e-01  4.0880548665392930e-01  5.1811625255195359e-01  6.3413074936959546e-01  7.5419872083961537e-01  8.7657429717679303e-01  1.0000000000000000e+00  -2.0000000000000000e+00  1.7491680034371773e-01  2.5508598825507406e-01  2.5975892458234867e-01  2.5592515802533267e-01  2.4801028205468142e-01  2.3705592004403772e-01  2.2182144796335665e-01  2.0523530491863537e-01  1.9507408055425168e-01  1.9592399956897399e-01  2.1385305321359821e-01  2.5289197737803643e-01  3.1117358164589037e-01  3.8510958966747111e-01  4.7164014006347899e-01  5.6781389168529317e-01  6.7079635161245432e-01  7.7828877878322678e-01  8.8850462906614736e-01  1.0000000000000000e+00  -2.0000000000000000e+00  2.1411303049863525e-01  2.6415572036616103e-01  2.6794889041534753e-01  2.6706799427047939e-01  2.6378221848943934e-01  2.5871162981298901e-01  2.5331112793676425e-01  2.4978705466895140e-01  2.5199069064545720e-01  2.6351542235447578e-01  2.8784334517055415e-01  3.2708478952770353e-01  3.8087809046276000e-01  4.4749068792990176e-01  5.2483159224722242e-01  6.1070282251328600e-01  7.0295198661170188e-01  7.9965541361469006e-01  8.9915544030456951e-01  1.0000000000000000e+00  -2.0000000000000000e+00  2.3584433045449804e-01  2.6897980542567274e-01  2.7463267414569664e-01  2.7700576360784041e-01  2.7846007517262367e-01  2.8011359713190032e-01  2.8292437930175984e-01  2.8861109517494893e-01  2.9958620500415012e-01  3.1830365403291777e-01  3.4692011558643898e-01  3.8672574509946372e-01  4.3776330274754438e-01  4.9914347934215392e-01  5.6949271848222294e-01  6.4721381950892631e-01  7.3065335870637749e-01  8.1822544875926240e-01  9.0846171853744129e-01  1.0000000000000000e+00  -2.0000000000000000e+00  2.4834166667223628e-01  2.7211205169145947e-01  2.8063579214210116e-01  2.8653300179860014e-01  2.9293872146131467e-01  3.0035830424022875e-01  3.0966169696342594e-01  3.2214674172493440e-01  3.3943938016327679e-01  3.6319287318660637e-01  3.9480771804282061e-01  4.3513477253616800e-01  4.8430589608579971e-01  5.4182720820894681e-01  6.0678198283058959e-01  6.7800637833381894e-01  7.5422217994562013e-01  8.3413130417854098e-01  9.1646598508593380e-01  1.0000000000000000e+00  -2.0000000000000000e+00  2.5287368946811845e-01  2.7443111796875780e-01  2.8574942577475670e-01  2.9555172998314444e-01  3.0640350463380600e-01  3.1871920140427401e-01  3.3321736258678086e-01  3.5087479459808590e-01  3.7283170073741617e-01  4.0022074050741030e-01  4.3398311086206925e-01  4.7469973091658801e-01  5.2249830085053994e-01  5.7707747457724401e-01  6.3780162629736958e-01  7.0380753105014005e-01  7.7409767856374356e-01  8.4761160292334781e-01  9.2327091762775326e-01  1.0000000000000000e+00  -2.0000000000000000e+00  2.5152514996666042e-01  2.7608148137577238e-01  2.8977985165483111e-01  3.0352098772541519e-01  3.1840436568649089e-01  3.3489763415628071e-01  3.5361375738133793e-01  3.7530337334321168e-01  4.0079188768089180e-01  4.3087527724354974e-01  4.6620425398145837e-01  5.0718273941757519e-01  5.5391010182252809e-01  6.0618276295211970e-01  6.6353951673150469e-01  7.2532444100562754e-01  7.9074940033586671e-01  8.5894651132335342e-01  9.2900608250173222e-01  1.0000000000000000e+00  -2.0000000000000000e+00  2.4601636675668190e-01  2.7663387794506500e-01  2.9308249474279319e-01  3.1034800357719422e-01  3.2879533623046181e-01  3.4885321215302001e-01  3.7103665943907821e-01  3.9593305371253129e-01  4.2415719939938984e-01  4.5628422680443848e-01  4.9277588840263897e-01  5.3391687094972640e-01  5.7977660406987708e-01  6.3020395867720180e-01  6.8484923667090192e-01  7.4320131590499838e-01  8.0462897045074222e-01  8.6841895953246695e-01  9.3380690105582276e-01  1.0000000000000000e+00  -2.0000000000000000e+00  2.3887451010387140e-01  2.7603027174345429e-01  2.9556824579408236e-01  3.1599319561010686e-01  3.3757576350514223e-01  3.6068321878625936e-01  3.8574661450942371e-01  4.1323498266844566e-01  4.4361962939969762e-01  4.7732854217217546e-01  5.1469820187493309e-01  5.5593225190881423e-01  6.0107548483005224e-01  6.5000723101590907e-01  7.0245215536990269e-01  7.5800261549272263e-01  8.1614620602963739e-01  8.7629345529994895e-01  9.3780256218909175e-01  1.0000000000000000e+00  -2.0000000000000000e+00  2.3112358051996051e-01  2.7460285549224944e-01  2.9716702107997522e-01  3.2048076956400867e-01  3.4483130339374096e-01  3.7055728497745172e-01  3.9803159714391173e-01  4.2764063305212996e-01  4.5975779335877992e-01  4.9471211060963305e-01  5.3275612501610337e-01  5.7403844998054598e-01  6.1858585232560848e-01  6.6629732518647999e-01  7.1694953830007757e-01  7.7021078466635240e-01  8.2565978287513775e-01  8.8280609344860017e-01  9.4110989240059506e-01  1.0000000000000000e+00  -2.0000000000000000e+00  2.2336500846818416e-01  2.7265258240574802e-01  2.9801621346956042e-01  3.2393155817221214e-01  3.5071139552836067e-01  3.7868302058589454e-01  4.0818185603664175e-01  4.3953815903738241e-01  4.7305880037365872e-01  5.0900598189147339e-01  5.4757573759930134e-01  5.8887957067165764e-01  6.3293214930535557e-01  6.7964667910432530e-01  7.2883788797757543e-01  7.8023120199747198e-01  8.3347604735596115e-01  8.8816124321872048e-01  9.4383091396468688e-01  1.0000000000000000e+00  -2.0000000000000000e+00  2.1602369157517440e-01  2.7045583703576742e-01  2.9831369222030629e-01  3.2651785412691897e-01  3.5539969996159504e-01  3.8528154580112411e-01  4.1647464737937834e-01  4.4927134668709934e-01  4.8393326720699859e-01  5.2067727898330030e-01  5.5966127281797129e-01  6.0097194580142743e-01  6.4461649511983177e-01  6.9051935394789088e-01  7.3852413250842641e-01  7.8840008798999905e-01  8.3985196133251550e-01  8.9253191810563415e-01  9.4605252023943198e-01  1.0000000000000000e+00  -2.0000000000000000e+00  2.0942304615066118e-01  2.6825998859417438e-01  2.9826486424897847e-01  3.2842646615356252e-01  3.5908800438997623e-01  3.9056881527762843e-01  4.2316384099264814e-01  4.5713931312463807e-01  4.9272564278393610e-01  5.3010859401675803e-01  5.6942012888785620e-01  6.1073044459624948e-01  6.5404253142465307e-01  6.9929010905898026e-01  7.4633920011824018e-01  7.9499305612158266e-01  8.4499979187846730e-01  8.9606194763186886e-01  9.4784724888740668e-01  1.0000000000000000e+00  -2.0000000000000000e+00  2.0382457278047905e-01  2.6627932532438259e-01  2.9805931002787034e-01  3.2983514184837642e-01  3.6195703616711933e-01  3.9474186992676524e-01  4.2847258818894779e-01  4.6339642203486864e-01  4.9972139678734961e-01  5.3761132541193968e-01  5.7718020412044602e-01  6.1848717227106054e-01  6.6153307692355134e-01  7.0625935074513757e-01  7.5254950278397148e-01  8.0023314449962391e-01  8.4909220242790251e-01  8.9886883165596776e-01  9.4927452767832654e-01  1.0000000000000000e+00  -2.0000000000000000e+00  1.9944057630807363e-01  2.6468856371806820e-01  2.9785790868974382e-01  3.3089775504495383e-01  3.6416312850335969e-01  3.9796904007336587e-01  4.3258821980150902e-01  4.6825239003853880e-01  5.0515219691865410e-01  5.4343510672320516e-01  5.8320218991092798e-01  6.2450496344399631e-01  6.6734325325335409e-01  7.1166471421404720e-01  7.5736631577288405e-01  8.0429781666503930e-01  8.5226704167755085e-01  9.0104664888577379e-01  9.5038203016993172e-01  1.0000000000000000e+00  -2.0000000000000000e+00  1.9635597357228241e-01  2.6360976206909770e-01  2.9778600596808319e-01  3.3173484113833568e-01  3.6582868272799945e-01  4.0038294206182956e-01  4.3565886090518335e-01  4.7187272139912373e-01  5.0919989412552313e-01  5.4777471465129923e-01  5.8768848535606444e-01  6.2898723834064252e-01  6.7167025843182193e-01  7.1568993708481299e-01  7.6095322942847743e-01  8.0732476471009906e-01  8.5463149873148847e-01  9.0266869203964428e-01  9.5120694411562634e-01  1.0000000000000000e+00  -2.0000000000000000e+00  1.9417939363440673e-01  2.6312480545023664e-01  2.9794151197515567e-01  3.3242692081230618e-01  3.6703381920847283e-01  4.0207518454076940e-01  4.3779156035827105e-01  4.7437974052724985e-01  5.1199994353301548e-01  5.5077537240040408e-01  5.9078979852138780e-01  6.3208524613068762e-01  6.7466060504847769e-01  7.1847154626490572e-01  7.6343190014611351e-01  8.0941651401539116e-01  8.5626549649866035e-01  9.0378967642568897e-01  9.5177705425293091e-01  1.0000000000000000e+00  -2.0000000000000000e+00  1.9144731977397275e-01  2.6354219607742430e-01  2.9842831566999684e-01  3.3299751092726065e-01  3.6780448875281602e-01  4.0309241653450423e-01  4.3905245545988203e-01  4.7585473681858936e-01  5.1364476707888485e-01  5.5253703289591405e-01  5.9261009019839572e-01  6.3390334261224268e-01  6.7641536936649593e-01  7.2010374278021883e-01  7.6488631087567971e-01  8.1064389470669229e-01  8.5722429682207335e-01  9.0444746291152023e-01  9.5211159647040822e-01  1.0000000000000000e+00  -2.0000000000000000e+00  1.9070731930354287e-01  2.6674122498666913e-01  2.9923204370014655e-01  3.3333031847392353e-01  3.6809420834102630e-01  4.0343753738454957e-01  4.3947110812816353e-01  4.7634198420834067e-01  5.1418735506802049e-01  5.5311790190597176e-01  5.9321018676403892e-01  6.3450266475339212e-01  6.7699378702504454e-01  7.2064174461379416e-01  7.6536570586969466e-01  8.1104845711362505e-01  8.5754033317142075e-01  9.0466428192791093e-01  9.5222186871718206e-01  1.0000000000000000e+00  </DataArray> 
</PointData> 
</Piece>
</UnstructuredGrid>
</VTKFile>