<?xml version="1.0"?>
<VTKFile type="UnstructuredGrid"  version="0.1"  >
<UnstructuredGrid>
<Piece  NumberOfPoints="4225" NumberOfCells="8192">
<Points>
<DataArray  type="Float64"  NumberOfComponents="3"  format="ascii">0 0 0  0.015625 0 0  0.03125 0 0  0.046875 0 0  0.0625 0 0  0.078125 0 0  0.09375 0 0  0.109375 0 0  0.125 0 0  0.140625 0 0  0.15625 0 0  0.171875 0 0  0.1875 0 0  0.203125 0 0  0.21875 0 0  0.234375 0 0  0.25 0 0  0.265625 0 0  0.28125 0 0  0.296875 0 0  0.3125 0 0  0.328125 0 0  0.34375 0 0  0.359375 0 0  0.375 0 0  0.390625 0 0  0.40625 0 0  0.421875 0 0  0.4375 0 0  0.453125 0 0  0.46875 0 0  0.484375 0 0  0.5 0 0  0.515625 0 0  0.53125 0 0  0.546875 0 0  0.5625 0 0  0.578125 0 0  0.59375 0 0  0.609375 0 0  0.625 0 0  0.640625 0 0  0.65625 0 0  0.671875 0 0  0.6875 0 0  0.703125 0 0  0.71875 0 0  0.734375 0 0  0.75 0 0  0.765625 0 0  0.78125 0 0  0.796875 0 0  0.8125 0 0  0.828125 0 0  0.84375 0 0  0.859375 0 0  0.875 0 0  0.890625 0 0  0.90625 0 0  0.921875 0 0  0.9375 0 0  0.953125 0 0  0.96875 0 0  0.984375 0 0  1 0 0  0 0.015625 0  0.015625 0.015625 0  0.03125 0.015625 0  0.046875 0.015625 0  0.0625 0.015625 0  0.078125 0.015625 0  0.09375 0.015625 0  0.109375 0.015625 0  0.125 0.015625 0  0.140625 0.015625 0  0.15625 0.015625 0  0.171875 0.015625 0  0.1875 0.015625 0  0.203125 0.015625 0  0.21875 0.015625 0  0.234375 0.015625 0  0.25 0.015625 0  0.265625 0.015625 0  0.28125 0.015625 0  0.296875 0.015625 0  0.3125 0.015625 0  0.328125 0.015625 0  0.34375 0.015625 0  0.359375 0.015625 0  0.375 0.015625 0  0.390625 0.015625 0  0.40625 0.015625 0  0.421875 0.015625 0  0.4375 0.015625 0  0.453125 0.015625 0  0.46875 0.015625 0  0.484375 0.015625 0  0.5 0.015625 0  0.515625 0.015625 0  0.53125 0.015625 0  0.546875 0.015625 0  0.5625 0.015625 0  0.578125 0.015625 0  0.59375 0.015625 0  0.609375 0.015625 0  0.625 0.015625 0  0.640625 0.015625 0  0.65625 0.015625 0  0.671875 0.015625 0  0.6875 0.015625 0  0.703125 0.015625 0  0.71875 0.015625 0  0.734375 0.015625 0  0.75 0.015625 0  0.765625 0.015625 0  0.78125 0.015625 0  0.796875 0.015625 0  0.8125 0.015625 0  0.828125 0.015625 0  0.84375 0.015625 0  0.859375 0.015625 0  0.875 0.015625 0  0.890625 0.015625 0  0.90625 0.015625 0  0.921875 0.015625 0  0.9375 0.015625 0  0.953125 0.015625 0  0.96875 0.015625 0  0.984375 0.015625 0  1 0.015625 0  0 0.03125 0  0.015625 0.03125 0  0.03125 0.03125 0  0.046875 0.03125 0  0.0625 0.03125 0  0.078125 0.03125 0  0.09375 0.03125 0  0.109375 0.03125 0  0.125 0.03125 0  0.140625 0.03125 0  0.15625 0.03125 0  0.171875 0.03125 0  0.1875 0.03125 0  0.203125 0.03125 0  0.21875 0.03125 0  0.234375 0.03125 0  0.25 0.03125 0  0.265625 0.03125 0  0.28125 0.03125 0  0.296875 0.03125 0  0.3125 0.03125 0  0.328125 0.03125 0  0.34375 0.03125 0  0.359375 0.03125 0  0.375 0.03125 0  0.390625 0.03125 0  0.40625 0.03125 0  0.421875 0.03125 0  0.4375 0.03125 0  0.453125 0.03125 0  0.46875 0.03125 0  0.484375 0.03125 0  0.5 0.03125 0  0.515625 0.03125 0  0.53125 0.03125 0  0.546875 0.03125 0  0.5625 0.03125 0  0.578125 0.03125 0  0.59375 0.03125 0  0.609375 0.03125 0  0.625 0.03125 0  0.640625 0.03125 0  0.65625 0.03125 0  0.671875 0.03125 0  0.6875 0.03125 0  0.703125 0.03125 0  0.71875 0.03125 0  0.734375 0.03125 0  0.75 0.03125 0  0.765625 0.03125 0  0.78125 0.03125 0  0.796875 0.03125 0  0.8125 0.03125 0  0.828125 0.03125 0  0.84375 0.03125 0  0.859375 0.03125 0  0.875 0.03125 0  0.890625 0.03125 0  0.90625 0.03125 0  0.921875 0.03125 0  0.9375 0.03125 0  0.953125 0.03125 0  0.96875 0.03125 0  0.984375 0.03125 0  1 0.03125 0  0 0.046875 0  0.015625 0.046875 0  0.03125 0.046875 0  0.046875 0.046875 0  0.0625 0.046875 0  0.078125 0.046875 0  0.09375 0.046875 0  0.109375 0.046875 0  0.125 0.046875 0  0.140625 0.046875 0  0.15625 0.046875 0  0.171875 0.046875 0  0.1875 0.046875 0  0.203125 0.046875 0  0.21875 0.046875 0  0.234375 0.046875 0  0.25 0.046875 0  0.265625 0.046875 0  0.28125 0.046875 0  0.296875 0.046875 0  0.3125 0.046875 0  0.328125 0.046875 0  0.34375 0.046875 0  0.359375 0.046875 0  0.375 0.046875 0  0.390625 0.046875 0  0.40625 0.046875 0  0.421875 0.046875 0  0.4375 0.046875 0  0.453125 0.046875 0  0.46875 0.046875 0  0.484375 0.046875 0  0.5 0.046875 0  0.515625 0.046875 0  0.53125 0.046875 0  0.546875 0.046875 0  0.5625 0.046875 0  0.578125 0.046875 0  0.59375 0.046875 0  0.609375 0.046875 0  0.625 0.046875 0  0.640625 0.046875 0  0.65625 0.046875 0  0.671875 0.046875 0  0.6875 0.046875 0  0.703125 0.046875 0  0.71875 0.046875 0  0.734375 0.046875 0  0.75 0.046875 0  0.765625 0.046875 0  0.78125 0.046875 0  0.796875 0.046875 0  0.8125 0.046875 0  0.828125 0.046875 0  0.84375 0.046875 0  0.859375 0.046875 0  0.875 0.046875 0  0.890625 0.046875 0  0.90625 0.046875 0  0.921875 0.046875 0  0.9375 0.046875 0  0.953125 0.046875 0  0.96875 0.046875 0  0.984375 0.046875 0  1 0.046875 0  0 0.0625 0  0.015625 0.0625 0  0.03125 0.0625 0  0.046875 0.0625 0  0.0625 0.0625 0  0.078125 0.0625 0  0.09375 0.0625 0  0.109375 0.0625 0  0.125 0.0625 0  0.140625 0.0625 0  0.15625 0.0625 0  0.171875 0.0625 0  0.1875 0.0625 0  0.203125 0.0625 0  0.21875 0.0625 0  0.234375 0.0625 0  0.25 0.0625 0  0.265625 0.0625 0  0.28125 0.0625 0  0.296875 0.0625 0  0.3125 0.0625 0  0.328125 0.0625 0  0.34375 0.0625 0  0.359375 0.0625 0  0.375 0.0625 0  0.390625 0.0625 0  0.40625 0.0625 0  0.421875 0.0625 0  0.4375 0.0625 0  0.453125 0.0625 0  0.46875 0.0625 0  0.484375 0.0625 0  0.5 0.0625 0  0.515625 0.0625 0  0.53125 0.0625 0  0.546875 0.0625 0  0.5625 0.0625 0  0.578125 0.0625 0  0.59375 0.0625 0  0.609375 0.0625 0  0.625 0.0625 0  0.640625 0.0625 0  0.65625 0.0625 0  0.671875 0.0625 0  0.6875 0.0625 0  0.703125 0.0625 0  0.71875 0.0625 0  0.734375 0.0625 0  0.75 0.0625 0  0.765625 0.0625 0  0.78125 0.0625 0  0.796875 0.0625 0  0.8125 0.0625 0  0.828125 0.0625 0  0.84375 0.0625 0  0.859375 0.0625 0  0.875 0.0625 0  0.890625 0.0625 0  0.90625 0.0625 0  0.921875 0.0625 0  0.9375 0.0625 0  0.953125 0.0625 0  0.96875 0.0625 0  0.984375 0.0625 0  1 0.0625 0  0 0.078125 0  0.015625 0.078125 0  0.03125 0.078125 0  0.046875 0.078125 0  0.0625 0.078125 0  0.078125 0.078125 0  0.09375 0.078125 0  0.109375 0.078125 0  0.125 0.078125 0  0.140625 0.078125 0  0.15625 0.078125 0  0.171875 0.078125 0  0.1875 0.078125 0  0.203125 0.078125 0  0.21875 0.078125 0  0.234375 0.078125 0  0.25 0.078125 0  0.265625 0.078125 0  0.28125 0.078125 0  0.296875 0.078125 0  0.3125 0.078125 0  0.328125 0.078125 0  0.34375 0.078125 0  0.359375 0.078125 0  0.375 0.078125 0  0.390625 0.078125 0  0.40625 0.078125 0  0.421875 0.078125 0  0.4375 0.078125 0  0.453125 0.078125 0  0.46875 0.078125 0  0.484375 0.078125 0  0.5 0.078125 0  0.515625 0.078125 0  0.53125 0.078125 0  0.546875 0.078125 0  0.5625 0.078125 0  0.578125 0.078125 0  0.59375 0.078125 0  0.609375 0.078125 0  0.625 0.078125 0  0.640625 0.078125 0  0.65625 0.078125 0  0.671875 0.078125 0  0.6875 0.078125 0  0.703125 0.078125 0  0.71875 0.078125 0  0.734375 0.078125 0  0.75 0.078125 0  0.765625 0.078125 0  0.78125 0.078125 0  0.796875 0.078125 0  0.8125 0.078125 0  0.828125 0.078125 0  0.84375 0.078125 0  0.859375 0.078125 0  0.875 0.078125 0  0.890625 0.078125 0  0.90625 0.078125 0  0.921875 0.078125 0  0.9375 0.078125 0  0.953125 0.078125 0  0.96875 0.078125 0  0.984375 0.078125 0  1 0.078125 0  0 0.09375 0  0.015625 0.09375 0  0.03125 0.09375 0  0.046875 0.09375 0  0.0625 0.09375 0  0.078125 0.09375 0  0.09375 0.09375 0  0.109375 0.09375 0  0.125 0.09375 0  0.140625 0.09375 0  0.15625 0.09375 0  0.171875 0.09375 0  0.1875 0.09375 0  0.203125 0.09375 0  0.21875 0.09375 0  0.234375 0.09375 0  0.25 0.09375 0  0.265625 0.09375 0  0.28125 0.09375 0  0.296875 0.09375 0  0.3125 0.09375 0  0.328125 0.09375 0  0.34375 0.09375 0  0.359375 0.09375 0  0.375 0.09375 0  0.390625 0.09375 0  0.40625 0.09375 0  0.421875 0.09375 0  0.4375 0.09375 0  0.453125 0.09375 0  0.46875 0.09375 0  0.484375 0.09375 0  0.5 0.09375 0  0.515625 0.09375 0  0.53125 0.09375 0  0.546875 0.09375 0  0.5625 0.09375 0  0.578125 0.09375 0  0.59375 0.09375 0  0.609375 0.09375 0  0.625 0.09375 0  0.640625 0.09375 0  0.65625 0.09375 0  0.671875 0.09375 0  0.6875 0.09375 0  0.703125 0.09375 0  0.71875 0.09375 0  0.734375 0.09375 0  0.75 0.09375 0  0.765625 0.09375 0  0.78125 0.09375 0  0.796875 0.09375 0  0.8125 0.09375 0  0.828125 0.09375 0  0.84375 0.09375 0  0.859375 0.09375 0  0.875 0.09375 0  0.890625 0.09375 0  0.90625 0.09375 0  0.921875 0.09375 0  0.9375 0.09375 0  0.953125 0.09375 0  0.96875 0.09375 0  0.984375 0.09375 0  1 0.09375 0  0 0.109375 0  0.015625 0.109375 0  0.03125 0.109375 0  0.046875 0.109375 0  0.0625 0.109375 0  0.078125 0.109375 0  0.09375 0.109375 0  0.109375 0.109375 0  0.125 0.109375 0  0.140625 0.109375 0  0.15625 0.109375 0  0.171875 0.109375 0  0.1875 0.109375 0  0.203125 0.109375 0  0.21875 0.109375 0  0.234375 0.109375 0  0.25 0.109375 0  0.265625 0.109375 0  0.28125 0.109375 0  0.296875 0.109375 0  0.3125 0.109375 0  0.328125 0.109375 0  0.34375 0.109375 0  0.359375 0.109375 0  0.375 0.109375 0  0.390625 0.109375 0  0.40625 0.109375 0  0.421875 0.109375 0  0.4375 0.109375 0  0.453125 0.109375 0  0.46875 0.109375 0  0.484375 0.109375 0  0.5 0.109375 0  0.515625 0.109375 0  0.53125 0.109375 0  0.546875 0.109375 0  0.5625 0.109375 0  0.578125 0.109375 0  0.59375 0.109375 0  0.609375 0.109375 0  0.625 0.109375 0  0.640625 0.109375 0  0.65625 0.109375 0  0.671875 0.109375 0  0.6875 0.109375 0  0.703125 0.109375 0  0.71875 0.109375 0  0.734375 0.109375 0  0.75 0.109375 0  0.765625 0.109375 0  0.78125 0.109375 0  0.796875 0.109375 0  0.8125 0.109375 0  0.828125 0.109375 0  0.84375 0.109375 0  0.859375 0.109375 0  0.875 0.109375 0  0.890625 0.109375 0  0.90625 0.109375 0  0.921875 0.109375 0  0.9375 0.109375 0  0.953125 0.109375 0  0.96875 0.109375 0  0.984375 0.109375 0  1 0.109375 0  0 0.125 0  0.015625 0.125 0  0.03125 0.125 0  0.046875 0.125 0  0.0625 0.125 0  0.078125 0.125 0  0.09375 0.125 0  0.109375 0.125 0  0.125 0.12
[...]
<PointData  Scalars="f_6"> 
<DataArray  type="Float64"  Name="f_6"  format="ascii">-2.0000000000000000e+00  -1.9531250000000000e+00  -1.9062500000000000e+00  -1.8593750000000000e+00  -1.8125000000000000e+00  -1.7656250000000000e+00  -1.7187500000000000e+00  -1.6718750000000000e+00  -1.6250000000000000e+00  -1.5781250000000000e+00  -1.5312500000000000e+00  -1.4843750000000000e+00  -1.4375000000000000e+00  -1.3906250000000000e+00  -1.3437500000000000e+00  -1.2968750000000000e+00  -1.2500000000000000e+00  -1.2031250000000000e+00  -1.1562500000000000e+00  -1.1093750000000000e+00  -1.0625000000000000e+00  -1.0156250000000000e+00  -9.6875000000000011e-01  -9.2187500000000000e-01  -8.7500000000000000e-01  -8.2812500000000000e-01  -7.8125000000000000e-01  -7.3437500000000000e-01  -6.8750000000000000e-01  -6.4062500000000000e-01  -5.9375000000000000e-01  -5.4687500000000000e-01  -5.0000000000000000e-01  -4.5312499999999994e-01  -4.0625000000000000e-01  -3.5937500000000000e-01  -3.1250000000000000e-01  -2.6562500000000000e-01  -2.1875000000000003e-01  -1.7187500000000000e-01  -1.2500000000000000e-01  -7.8124999999999986e-02  -3.1250000000000000e-02  1.5625000000000000e-02  6.2500000000000000e-02  1.0937500000000000e-01  1.5625000000000000e-01  2.0312500000000000e-01  2.5000000000000000e-01  2.9687500000000000e-01  3.4375000000000000e-01  3.9062500000000000e-01  4.3750000000000000e-01  4.8437500000000000e-01  5.3125000000000000e-01  5.7812500000000000e-01  6.2500000000000000e-01  6.7187500000000000e-01  7.1875000000000000e-01  7.6562500000000000e-01  8.1250000000000000e-01  8.5937500000000000e-01  9.0625000000000000e-01  9.5312500000000000e-01  1.0000000000000000e+00  -2.0000000000000000e+00  -1.9132717274922875e+00  -1.8332349189092925e+00  -1.7584627532514874e+00  -1.6880331884885456e+00  -1.6212763823297929e+00  -1.5576727328833762e+00  -1.4968035503018315e+00  -1.4383233534155755e+00  -1.3819424609242996e+00  -1.3274151306098971e+00  -1.2745310019846987e+00  -1.2231086655252215e+00  -1.1729906857749512e+00  -1.1240396651518614e+00  -1.0761350792475823e+00  -1.0291706995658270e+00  -9.8305247295982190e-01  -9.3769676213485698e-01  -8.9302887583497859e-01  -8.4898183496201851e-01  -8.0549533450057620e-01  -7.6251487251293826e-01  -7.1999102796813053e-01  -6.7787888007967834e-01  -6.3613757500159929e-01  -5.9473006446417442e-01  -5.5362307011235701e-01  -5.1278736883026943e-01  -4.7219852812176183e-01  -4.3183815696939304e-01  -3.9169534320007643e-01  -3.5176688524521432e-01  -3.1205363745324638e-01  -2.7255355677008170e-01  -2.3327070095634139e-01  -1.9426690433130173e-01  -1.5564958262594272e-01  -1.1735346463441083e-01  -7.9135950784248330e-02  -4.4581031139641195e-02  -1.1929415394769768e-02  2.1762058095755658e-02  5.7385045545547124e-02  9.6133368052947685e-02  1.3800960472632978e-01  1.8130770724100670e-01  2.2537321742811223e-01  2.6991170983131962e-01  3.1477042168093150e-01  3.5986039775529644e-01  4.0512504308153108e-01  4.5052584330482298e-01  4.9603518490301013e-01  5.4163242624293484e-01  5.8730159396396053e-01  6.3302995396222361e-01  6.7880708235064513e-01  7.2462423672885878e-01  7.7047391522097952e-01  8.1634953670836619e-01  8.6224520114575010e-01  9.0815550352273222e-01  9.5407538374801981e-01  1.0000000000000000e+00  -2.0000000000000000e+00  -1.8765487211638967e+00  -1.7679242332014193e+00  -1.6707166200267862e+00  -1.5825759691286891e+00  -1.5018038404541134e+00  -1.4271254212216580e+00  -1.3575558585347562e+00  -1.2923171627598347e+00  -1.2307838011364112e+00  -1.1724455170332777e+00  -1.1168810271462588e+00  -1.0637388870422346e+00  -1.0127232501064762e+00  -9.6358306583264464e-01  -9.1610375500542873e-01  -8.7010070571083309e-01  -8.2541413178276213e-01  -7.8190496678685140e-01  -7.3945155663036399e-01  -6.9794697730647659e-01  -6.5729685057879483e-01  -6.1741756584379059e-01  -5.7823484532256619e-01  -5.3968261542176332e-01  -5.0170217287861263e-01  -4.6424166563669300e-01  -4.2725595639100677e-01  -3.9070701976159367e-01  -3.5456515492530261e-01  -3.1881142248491717e-01  -2.8344154202324123e-01  -2.4847002677425684e-01  -2.1392840407137845e-01  -1.7984516647365517e-01  -1.4623199784269403e-01  -1.1324378317260603e-01  -8.1393944942741880e-02  -5.0934124597238159e-02  -2.3026680561625993e-02  3.0222565389248592e-03  2.9784038308522838e-02  5.8753708079499929e-02  9.0820042241512716e-02  1.2663882193991391e-01  1.6522234361136451e-01  2.0559800680958482e-01  2.4714845264012258e-01  2.8950320021623493e-01  3.3243457913711000e-01  3.7579612625872322e-01  4.1948893126600495e-01  4.6344314523475072e-01  5.0760747006428253e-01  5.5194292610476847e-01  5.9641899565068379e-01  6.4101113953428868e-01  6.8569913871149890e-01  7.3046594934381071e-01  7.7529688744669301e-01  8.2017903046673513e-01  8.6510076435190220e-01  9.1005142919715865e-01  9.5502103146934680e-01  1.0000000000000000e+00  -2.0000000000000000e+00  -1.8423640189739334e+00  -1.7089828375240590e+00  -1.5935589998969650e+00  -1.4918766215478556e+00  -1.4009910891147563e+00  -1.3187711565894669e+00  -1.2436281191614995e+00  -1.1743484291498605e+00  -1.1099860144863607e+00  -1.0497905160995624e+00  -9.9315797645151549e-01  -9.3959604841182220e-01  -8.8869888209329273e-01  -8.4012863490953305e-01  -7.9360162099157516e-01  -7.4887777800760214e-01  -7.0575255032065287e-01  -6.6405056207273039e-01  -6.2362063744153262e-01  -5.8433185122963482e-01  -5.4607038183052936e-01  -5.0873700386468401e-01  -4.7224510831671135e-01  -4.3651917978051769e-01  -4.0149369750112052e-01  -3.6711246408931958e-01  -3.3332841616148046e-01  -3.0010407140554740e-01  -2.6741299559836124e-01  -2.3524315562200870e-01  -2.0360386322888141e-01  -1.7253873758289034e-01  -1.4214230860374830e-01  -1.1253595819582678e-01  -8.3717959566520450e-02  -5.5709836450250398e-02  -3.0676054223045219e-02  -7.7938889242039735e-03  1.4423718021679816e-02  3.6867751101748628e-02  6.1499631331279385e-02  8.9508572360871827e-02  1.2050259340108993e-01  1.5437953385383074e-01  1.9064294096963008e-01  2.2871352374584550e-01  2.6811938610655844e-01  3.0851805925638748e-01  3.4966856839255051e-01  3.9140059687648149e-01  4.3359141048901512e-01  4.7615033630389236e-01  5.1900862401460146e-01  5.6211281246117240e-01  6.0542032299971760e-01  6.4889646981274829e-01  6.9251238361725154e-01  7.3624353448819191e-01  7.8006865475524689e-01  8.2396893335997956e-01  8.6792739659796525e-01  9.1192841744465358e-01  9.5595731293220887e-01  1.0000000000000000e+00  -2.0000000000000000e+00  -1.8104074298888244e+00  -1.6554680512565263e+00  -1.5251173915520999e+00  -1.4129389029742025e+00  -1.3146279310704387e+00  -1.2271754738482519e+00  -1.1484061500697091e+00  -1.0767026730867468e+00  -1.0108341444244899e+00  -9.4984493544238269e-01  -8.9298040170711057e-01  -8.3963580133839799e-01  -7.8932029631239675e-01  -7.4163103271698794e-01  -6.9623412357833825e-01  -6.5285046406293978e-01  -6.1124499783927788e-01  -5.7121849385983581e-01  -5.3260118138739398e-01  -4.9524778479044729e-01  -4.5903363332039060e-01  -4.2385161692640400e-01  -3.8960983186046128e-01  -3.5622981899577488e-01  -3.2364534829322256e-01  -2.9180174513149226e-01  -2.6065579151148277e-01  -2.3017630048008955e-01  -2.0034567272923567e-01  -1.7116338641095030e-01  -1.4265417841259503e-01  -1.1488920265483561e-01  -8.8052859653567350e-02  -6.2570767428244148e-02  -3.8549172726902600e-02  -1.6774923605270841e-02  3.0977720812445358e-03  2.2723853170250642e-02  4.3104368639005929e-02  6.5127863601366812e-02  8.9838163553974254e-02  1.1727835663161798e-01  1.4730222514814451e-01  1.7973377910468888e-01  2.1425636266747977e-01  2.5049376109760846e-01  2.8809750878387808e-01  3.2678108231020614e-01  3.6632103830022306e-01  4.0654628236563695e-01  4.4732577750968172e-01  4.8855816547720199e-01  5.3016387722905878e-01  5.7207937672560161e-01  6.1425301407426625e-01  6.5664203309973512e-01  6.9921039145656694e-01  7.4192715023645839e-01  7.8476526372612332e-01  8.2770065161997042e-01  8.7071147123532588e-01  9.1377753105128168e-01  9.5687980281483465e-01  1.0000000000000000e+00  -2.0000000000000000e+00  -1.7804817751752726e+00  -1.6066751395160037e+00  -1.4639898145064947e+00  -1.3435826432684073e+00  -1.2397489345792398e+00  -1.1486252882355457e+00  -1.0674913133034800e+00  -9.9436938946130093e-01  -9.2778322820319392e-01  -8.6660589381582576e-01  -8.0996062522304968e-01  -7.5715408318453470e-01  -7.0763020448440572e-01  -6.6093755075973926e-01  -6.1670573171352427e-01  -5.7462807672915106e-01  -5.3444870255761701e-01  -4.9595273611430180e-01  -4.5895884525807346e-01  -4.2331349052694350e-01  -3.8888648740503801e-01  -3.5556759341262928e-01  -3.2326392861209113e-01  -2.9189811756730766e-01  -2.6140711467764882e-01  -2.3174174055601252e-01  -2.0286699751480811e-01  -1.7476324642428170e-01  -1.4742842676238940e-01  -1.2088198993389829e-01  -9.5172499299773602e-02  -7.0394987389604910e-02  -4.6678719981518478e-02  -2.5717642812143143e-02  -6.8030089496202957e-03  1.1133825663248147e-02  2.8773736319884051e-02  4.7485610242401485e-02  6.8146248692259784e-02  9.0701171110738443e-02  1.1544680265163280e-01  1.4246446546348140e-01  1.7169417145518126e-01  2.0299699474930050e-01  2.3615496949799164e-01  2.7090764919323052e-01  3.0699580562113959e-01  3.4418772290033584e-01  3.8228822013249847e-01  4.2113771677616169e-01  4.6060725170687261e-01  5.0059267086617509e-01  5.4100934269883028e-01  5.8178780313790912e-01  6.2287032347200955e-01  6.6420825705535913e-01  7.0575999887282315e-01  7.4748941127495150e-01  7.8936459829281747e-01  8.3135693815845324e-01  8.7344030567208597e-01  9.1559043271031282e-01  9.5778436727584904e-01  1.0000000000000000e+00  -2.0000000000000000e+00  -1.7524422199131404e+00  -1.5620517841993209e+00  -1.4090968372062189e+00  -1.2821765401666512e+00  -1.1741964770993971e+00  -1.0804857069581797e+00  -9.9782934821693980e-01  -9.2393405778202942e-01  -8.5711500805321394e-01  -7.9610362995824302e-01  -7.3992473600600295e-01  -6.8781529149345400e-01  -6.3916914170056793e-01  -5.9349844931730311e-01  -5.5040620104381965e-01  -5.0956623546338897e-01  -4.7070850081920401e-01  -4.3360802841887086e-01  -3.9807660125632915e-01  -3.6395641958963909e-01  -3.3111528129383255e-01  -2.9944294563391649e-01  -2.6884846334224966e-01  -2.3925835855221078e-01  -2.1061566346181756e-01  -1.8287994640294369e-01  -1.5602860865756901e-01  -1.3005980597285532e-01  -1.0499758082869408e-01  -8.0901250411225159e-02  -5.7886191093015592e-02  -3.6175691017703064e-02  -1.6888020597228302e-02  2.2982298893716561e-04  1.6716025988831689e-02  3.3445764259185815e-02  5.1043488112996083e-02  7.0298602787211548e-02  9.1293844776893382e-02  1.1408376949769432e-01  1.3878341047833717e-01  1.6543853111549359e-01  1.9401300045979861e-01  2.2440505893934046e-01  2.5645887138195572e-01  2.8998606055618231e-01  3.2479034160711429e-01  3.6068578353749919e-01  3.9750640255327363e-01  4.3510911289963849e-01  4.7337284167547156e-01  5.1219592358179533e-01  5.5149301956217833e-01  5.9119216965519472e-01  6.3123221962050458e-01  6.7156067277686871e-01  7.1213193570441513e-01  7.5290589769770588e-01  7.9384678001174169e-01  8.3492219704893877e-01  8.7610238058425183e-01  9.1735952684203426e-01  9.5866723357824823e-01  1.0000000000000000e+00  -2.0000000000000000e+00  -1.7261715355074061e+00  -1.5211498652613435e+00  -1.3595873526097000e+00  -1.2274702151420886e+00  -1.1163572067870640e+00  -1.0208276914681373e+00  -9.3722392425542544e-01  -8.6297837883926387e-01  -7.9622996787798828e-01  -7.3559331588754973e-01  -6.8001390883910284e-01  -6.2867378696011544e-01  -5.8092821364467351e-01  -5.3626200123844014e-01  -4.9425869615200752e-01  -4.5457840714887809e-01  -4.1694158770019657e-01  -3.8111701584955565e-01  -3.4691280146120934e-01  -3.1416963001656523e-01  -2.8275570469088712e-01  -2.5256302311810735e-01  -2.2350475648297055e-01  -1.9551362281988890e-01  -1.6854132086129781e-01  -1.4255939532763140e-01  -1.1756236932433295e-01  -9.3574502399778076e-02  -7.0662724593876999e-02  -4.8962231705937748e-02  -2.8784549593216378e-02  -1.0826021751415485e-02  5.2429909122977247e-03  2.0512956598333170e-02  3.6308685081863509e-02  5.3380042658755580e-02  7.1655849085702952e-02  9.1371468016555268e-02  1.1264675813040773e-01  1.3555665162480832e-01  1.6016453864852803e-01  1.8649324806035708e-01  2.1451424032917912e-01  2.4415136916630703e-01  2.7528939653430862e-01  3.0778738004242873e-01  3.4149371671363582e-01  3.7625866708927286e-01  4.1194249364345842e-01  4.4841949059364700e-01  4.8557907851357979e-01  5.2332516222335657e-01  5.6157464231289289e-01  6.0025563630018675e-01  6.3930571257794522e-01  6.7867027872719621e-01  7.1830117347026290e-01  7.5815546379971555e-01  7.9819442700750520e-01  8.3838268944130812e-01  8.7868749277394775e-01  9.1907806049532448e-01  9.5952504019510987e-01  1.0000000000000000e+00  -2.0000000000000000e+00  -1.7015688972130851e+00  -1.4835967254421076e+00  -1.3147769406615406e+00  -1.1784852755370863e+00  -1.0649964163654859e+00  -9.6820157631817527e-01  -8.8404923500164900e-01  -8.0973468384705738e-01  -7.4324804548764345e-01  -6.8310753489160325e-01  -6.2819455709249483e-01  -5.7764773079650222e-01  -5.3079251100403568e-01  -4.8709312727214377e-01  -4.4611896802610684e-01  -4.0752058752971798e-01  -3.7101229189812607e-01  -3.3635933621908642e-01  -3.0336843604967784e-01  -2.7188072908644978e-01  -2.4176661146981618e-01  -2.1292207369181598e-01  -1.8526630948532510e-01  -1.5874050847642424e-01  -1.3330797432836813e-01  -1.0895630904533063e-01  -8.5703808315251734e-02  -6.3614806828866721e-02  -4.2831253989111945e-02  -2.3739587966973990e-02  -6.7589970338677646e-03  8.5811696320074165e-03  2.3257979864953562e-02  3.8349757476283490e-02  5.4625715081533521e-02  7.2109872208270073e-02  9.0828397554504878e-02  1.1088466206289882e-01  1.3236506810337392e-01  1.5533154022260329e-01  1.7982484443060961e-01  2.0585568214822764e-01  2.3339934363025394e-01  2.6239678086239987e-01  2.9275996554654288e-01  3.2438034636558838e-01  3.5713847811572685e-01  3.9091267446249828e-01  4.2558541433764019e-01  4.6104727731791156e-01  4.9719881956184414e-01  5.3395100448515820e-01  5.7122475116585036e-01  6.0895002065471449e-01  6.4706471566389345e-01  6.8551355608370823e-01  7.2424701564972449e-01  7.6322035702338853e-01  8.0239277477725557e-01  8.4172664093484106e-01  8.8118684057490737e-01  9.2074018217020548e-01  9.6035486670686732e-01  1.0000000000000000e+00  -2.0000000000000000e+00  -1.6785443806365030e+00  -1.4490769378574488e+00  -1.2741062339145037e+00  -1.1344425105373008e+00  -1.0191502230439082e+00  -9.2149353110638710e-01  -8.3707214602804547e-01  -7.6287642494225061e-01  -6.9677077442505275e-01  -6.3719364389657440e-01  -5.8297450414944951e-01  -5.3321753218679280e-01  -4.8722510197037983e-01  -4.4444596843120393e-01  -4.0443929504039255e-01  -3.6684915600313683e-01  -3.3138615658843074e-01  -2.9781402116181493e-01  -2.6593974713667412e-01  -2.3560640657062223e-01  -2.0668800619395011e-01  -1.7908605667551686e-01  -1.5272768933089334e-01  -1.2756531837282348e-01  -1.0357809620096937e-01  -8.0776412438130302e-02  -5.9214809184396776e-02  -3.9026247939592036e-02  -2.0635793434923871e-02  -4.3368013974471493e-03  1.0457475788186907e-02  2.4712796816722882e-02  3.9356171953828067e-02  5.5002378360313714e-02  7.1734545559717061e-02  8.9605333538286314e-02  1.0866320686114762e-01  1.2897371457716122e-01  1.5059731199758583e-01  1.7357959673162132e-01  1.9794761670307942e-01  2.2370529247168999e-01  2.5083067118120916e-01  2.7927644510649557e-01  3.0897333842387459e-01  3.3983556175765522e-01  3.7176717492118549e-01  4.0466813830735338e-01  4.3843921192669238e-01  4.7298538477851498e-01  5.0821791793072724e-01  5.4405528498958167e-01  5.8042333721063599e-01  6.1725497948892727e-01  6.5448957333920676e-01  6.9207221429401877e-01  7.2995297602153864e-01  7.6808617386685862e-01  8.0642967414328737e-01  8.4494425894589342e-01  8.8359304642063452e-01  9.2234096090372308e-01  9.6115424446215381e-01  1.0000000000000000e+00  -2.0000000000000000e+00  -1.6570160820815467e+00  -1.4173200440552620e+00  -1.2371118996847152e+00  -1.0947118749043234e+00  -9.7805319677939140e-01  -8.7983137070872219e-01  -7.9533779610977173e-01  -7.2138570058823603e-01  -6.5573305741028709e-01  -5.9675211751731461e-01  -5.4323011560820744e-01  -4.9424383046213533e-01  -4.4907775076284412e-01  -4.0716904957954508e-01  -3.6806962989959935e-01  -3.3141938580277769e-01  -2.9692704859325081e-01  -2.6435631128947512e-01  -2.3351574413806833e-01  -2.0425154687051111e-01  -1.7644256127980720e-01  -1.4999727966483592e-01  -1.2485289537468615e-01  -1.0097677247166170e-01  -7.8371063464449081e-02  -5.7082652126297574e-02  -3.7229729836476856e-02  -1.9209437703282491e-02  -3.3222814484009334e-03  1.1075940066647359e-02  2.4989954085590411e-02  3.9284208763114566e-02  5.4451532773322112e-02  7.0569038451426272e-02  8.7704755258734654e-02  1.0591370952401057e-01  1.2524538177463812e-01  1.4574967738701258e-01  1.6747086857818705e-01  1.9044191800321653e-01  2.1468073317839714e-01  2.4018719985424353e-01  2.6694160351639745e-01  2.9490498995849929e-01  3.2402138128480507e-01  3.5422138731997183e-01  3.8542652150400680e-01  4.1755349191903757e-01  4.5051791028326144e-01  4.8423713193872858e-01  5.1863218239296782e-01  5.5362888033180557e-01  5.8915833319818489e-01  6.2515698675115183e-01  6.6156638390998757e-01  6.9833275173162201e-01  7.3540650027555288e-01  7.7274168827921885e-01  8.1029548898314241e-01  8.4802767428481063e-01  8.8590012525801376e-01  9.2387637056189864e-01  9.6192115023802482e-01  1.0000000000000000e+00  -2.0000000000000000e+00  -1.6369085292024208e+00  -1.3880918872438357e+00  -1.2034058359575088e+00  -1.0587772584550861e+00  -9.4108845820081588e-01  -8.4252087241021734e-01  -7.5809355581655946e-01  -6.8446646458042715e-01  -6.1930723876612559e-01  -5.6093301081626867e-01  -5.0809655388427133e-01  -4.5985280554683849e-01  -4.1547241233349869e-01  -3.7438395990131002e-01  -3.3613435193239499e-01  -3.0036105099297794e-01  -2.6677231215386782e-01  -2.3513297113549328e-01  -2.0525423248683106e-01  -1.7698648355326901e-01  -1.5021459224443803e-01  -1.2485557030990541e-01  -1.0085909518476611e-01  -7.8212485849022531e-02  -5.6953549066332612e-02  -3.7197041520251876e-02  -1.9270245977456205e-02  -3.5508812223428434e-03  1.0599168481393027e-02  2.4228757958337312e-02  3.8213552972451811e-02  5.2982551376822833e-02  6.8596711924919576e-02  8.5117487413334594e-02  1.0260172749978476e-01  1.2109936752438324e-01  1.4065493332638171e-01  1.6130874461806399e-01  1.8309456692493328e-01  2.0603647352466062e-01  2.3014619815304918e-01  2.5542117025048949e-01  2.8184355307163750e-01  3.0938052992629900e-01  3.3798580943687467e-01  3.6760208473342026e-01  3.9816403185583227e-01  4.2960139758152882e-01  4.6184180534858738e-01  4.9481305030017009e-01  5.2844479937060995e-01  5.6266972074648780e-01  5.9742412849914617e-01  6.3264825040750738e-01  6.6828622381796920e-01  7.0428590844692840e-01  7.4059858506983234e-01  7.7717858999132172e-01  8.1398291922525245e-01  8.5097082395219281e-01  8.8810340976471114e-01  9.2534324584783267e-01  9.6265398592804730e-01  1.0000000000000000e+00  -2.0000000000000000e+00  -1.6181517558044896e+00  -1.3611882326753404e+00  -1.1726598847789065e+00  -1.0262111094617987e+00  -9.0775244289770129e-01  -8.0900158498051167e-01  -7.2473703303021997e-01  -6.5148591367614694e-01  -5.8683899596788502e-01  -5.2906737388526426e-01  -4.7689562225971827e-01  -4.2936124867423320e-01  -3.8572422680974178e-01  -3.4540687887598026e-01  -3.0795285391607841e-01  -2.7299853473173297e-01  -2.4025279913952430e-01  -2.0948259054423596e-01  -1.8050269805483643e-01  -1.5316877343157401e-01  -1.2737309665783647e-01  -1.0304313924096571e-01  -8.0144029319994342e-02  -5.8689132779998383e-02  -3.8773282141219167e-02  -2.0686817496805041e-02  -4.9203687601501664e-03  9.1277786067621471e-03  2.2538309618570281e-02  3.6236149102391438e-02 