<?xml version="1.0"?>
<VTKFile type="UnstructuredGrid"  version="0.1"  >
<UnstructuredGrid>
<Piece  NumberOfPoints="441" NumberOfCells="800">
<Points>
<DataArray  type="Float64"  NumberOfComponents="3"  format="ascii">0 0 0  0.05 0 0  0.1 0 0  0.15 0 0  0.2 0 0  0.25 0 0  0.3 0 0  0.35 0 0  0.4 0 0  0.45 0 0  0.5 0 0  0.55 0 0  0.6 0 0  0.65 0 0  0.7 0 0  0.75 0 0  0.8 0 0  0.85 0 0  0.9 0 0  0.95 0 0  1 0 0  0 0.05 0  0.05 0.05 0  0.1 0.05 0  0.15 0.05 0  0.2 0.05 0  0.25 0.05 0  0.3 0.05 0  0.35 0.05 0  0.4 0.05 0  0.45 0.05 0  0.5 0.05 0  0.55 0.05 0  0.6 0.05 0  0.65 0.05 0  0.7 0.05 0  0.75 0.05 0  0.8 0.05 0  0.85 0.05 0  0.9 0.05 0  0.95 0.05 0  1 0.05 0  0 0.1 0  0.05 0.1 0  0.1 0.1 0  0.15 0.1 0  0.2 0.1 0  0.25 0.1 0  0.3 0.1 0  0.35 0.1 0  0.4 0.1 0  0.45 0.1 0  0.5 0.1 0  0.55 0.1 0  0.6 0.1 0  0.65 0.1 0  0.7 0.1 0  0.75 0.1 0  0.8 0.1 0  0.85 0.1 0  0.9 0.1 0  0.95 0.1 0  1 0.1 0  0 0.15 0  0.05 0.15 0  0.1 0.15 0  0.15 0.15 0  0.2 0.15 0  0.25 0.15 0  0.3 0.15 0  0.35 0.15 0  0.4 0.15 0  0.45 0.15 0  0.5 0.15 0  0.55 0.15 0  0.6 0.15 0  0.65 0.15 0  0.7 0.15 0  0.75 0.15 0  0.8 0.15 0  0.85 0.15 0  0.9 0.15 0  0.95 0.15 0  1 0.15 0  0 0.2 0  0.05 0.2 0  0.1 0.2 0  0.15 0.2 0  0.2 0.2 0  0.25 0.2 0  0.3 0.2 0  0.35 0.2 0  0.4 0.2 0  0.45 0.2 0  0.5 0.2 0  0.55 0.2 0  0.6 0.2 0  0.65 0.2 0  0.7 0.2 0  0.75 0.2 0  0.8 0.2 0  0.85 0.2 0  0.9 0.2 0  0.95 0.2 0  1 0.2 0  0 0.25 0  0.05 0.25 0  0.1 0.25 0  0.15 0.25 0  0.2 0.25 0  0.25 0.25 0  0.3 0.25 0  0.35 0.25 0  0.4 0.25 0  0.45 0.25 0  0.5 0.25 0  0.55 0.25 0  0.6 0.25 0  0.65 0.25 0  0.7 0.25 0  0.75 0.25 0  0.8 0.25 0  0.85 0.25 0  0.9 0.25 0  0.95 0.25 0  1 0.25 0  0 0.3 0  0.05 0.3 0  0.1 0.3 0  0.15 0.3 0  0.2 0.3 0  0.25 0.3 0  0.3 0.3 0  0.35 0.3 0  0.4 0.3 0  0.45 0.3 0  0.5 0.3 0  0.55 0.3 0  0.6 0.3 0  0.65 0.3 0  0.7 0.3 0  0.75 0.3 0  0.8 0.3 0  0.85 0.3 0  0.9 0.3 0  0.95 0.3 0  1 0.3 0  0 0.35 0  0.05 0.35 0  0.1 0.35 0  0.15 0.35 0  0.2 0.35 0  0.25 0.35 0  0.3 0.35 0  0.35 0.35 0  0.4 0.35 0  0.45 0.35 0  0.5 0.35 0  0.55 0.35 0  0.6 0.35 0  0.65 0.35 0  0.7 0.35 0  0.75 0.35 0  0.8 0.35 0  0.85 0.35 0  0.9 0.35 0  0.95 0.35 0  1 0.35 0  0 0.4 0  0.05 0.4 0  0.1 0.4 0  0.15 0.4 0  0.2 0.4 0  0.25 0.4 0  0.3 0.4 0  0.35 0.4 0  0.4 0.4 0  0.45 0.4 0  0.5 0.4 0  0.55 0.4 0  0.6 0.4 0  0.65 0.4 0  0.7 0.4 0  0.75 0.4 0  0.8 0.4 0  0.85 0.4 0  0.9 0.4 0  0.95 0.4 0  1 0.4 0  0 0.45 0  0.05 0.45 0  0.1 0.45 0  0.15 0.45 0  0.2 0.45 0  0.25 0.45 0  0.3 0.45 0  0.35 0.45 0  0.4 0.45 0  0.45 0.45 0  0.5 0.45 0  0.55 0.45 0  0.6 0.45 0  0.65 0.45 0  0.7 0.45 0  0.75 0.45 0  0.8 0.45 0  0.85 0.45 0  0.9 0.45 0  0.95 0.45 0  1 0.45 0  0 0.5 0  0.05 0.5 0  0.1 0.5 0  0.15 0.5 0  0.2 0.5 0  0.25 0.5 0  0.3 0.5 0  0.35 0.5 0  0.4 0.5 0  0.45 0.5 0  0.5 0.5 0  0.55 0.5 0  0.6 0.5 0  0.65 0.5 0  0.7 0.5 0  0.75 0.5 0  0.8 0.5 0  0.85 0.5 0  0.9 0.5 0  0.95 0.5 0  1 0.5 0  0 0.55 0  0.05 0.55 0  0.1 0.55 0  0.15 0.55 0  0.2 0.55 0  0.25 0.55 0  0.3 0.55 0  0.35 0.55 0  0.4 0.55 0  0.45 0.55 0  0.5 0.55 0  0.55 0.55 0  0.6 0.55 0  0.65 0.55 0  0.7 0.55 0  0.75 0.55 0  0.8 0.55 0  0.85 0.55 0  0.9 0.55 0  0.95 0.55 0  1 0.55 0  0 0.6 0  0.05 0.6 0  0.1 0.6 0  0.15 0.6 0  0.2 0.6 0  0.25 0.6 0  0.3 0.6 0  0.35 0.6 0  0.4 0.6 0  0.45 0.6 0  0.5 0.6 0  0.55 0.6 0  0.6 0.6 0  0.65 0.6 0  0.7 0.6 0  0.75 0.6 0  0.8 0.6 0  0.85 0.6 0  0.9 0.6 0  0.95 0.6 0  1 0.6 0  0 0.65 0  0.05 0.65 0  0.1 0.65 0  0.15 0.65 0  0.2 0.65 0  0.25 0.65 0  0.3 0.65 0  0.35 0.65 0  0.4 0.65 0  0.45 0.65 0  0.5 0.65 0  0.55 0.65 0  0.6 0.65 0  0.65 0.65 0  0.7 0.65 0  0.75 0.65 0  0.8 0.65 0  0.85 0.65 0  0.9 0.65 0  0.95 0.65 0  1 0.65 0  0 0.7 0  0.05 0.7 0  0.1 0.7 0  0.15 0.7 0  0.2 0.7 0  0.25 0.7 0  0.3 0.7 0  0.35 0.7 0  0.4 0.7 0  0.45 0.7 0  0.5 0.7 0  0.55 0.7 0  0.6 0.7 0  0.65 0.7 0  0.7 0.7 0  0.75 0.7 0  0.8 0.7 0  0.85 0.7 0  0.9 0.7 0  0.95 0.7 0  1 0.7 0  0 0.75 0  0.05 0.75 0  0.1 0.75 0  0.15 0.75 0  0.2 0.75 0  0.25 0.75 0  0.3 0.75 0  0.35 0.75 0  0.4 0.75 0  0.45 0.75 0  0.5 0.75 0  0.55 0.75 0  0.6 0.75 0  0.65 0.75 0  0.7 0.75 0  0.75 0.75 0  0.8 0.75 0  0.85 0.75 0  0.9 0.75 0  0.95 0.75 0  1 0.75 0  0 0.8 0  0.05 0.8 0  0.1 0.8 0  0.15 0.8 0  0.2 0.8 0  0.25 0.8 0  0.3 0.8 0  0.35 0.8 0  0.4 0.8 0  0.45 0.8 0  0.5 0.8 0  0.55 0.8 0  0.6 0.8 0  0.65 0.8 0  0.7 0.8 0  0.75 0.8 0  0.8 0.8 0  0.85 0.8 0  0.9 0.8 0  0.95 0.8 0  1 0.8 0  0 0.85 0  0.05 0.85 0  0.1 0.85 0  0.15 0.85 0  0.2 0.85 0  0.25 0.85 0  0.3 0.85 0  0.35 0.85 0  0.4 0.85 0  0.45 0.85 0  0.5 0.85 0  0.55 0.85 0  0.6 0.85 0  0.65 0.85 0  0.7 0.85 0  0.75 0.85 0  0.8 0.85 0  0.85 0.85 0  0.9 0.85 0  0.95 0.85 0  1 0.85 0  0 0.9 0  0.05 0.9 0  0.1 0.9 0  0.15 0.9 0  0.2 0.9 0  0.25 0.9 0  0.3 0.9 0  0.35 0.9 0  0.4 0.9 0  0.45 0.9 0  0.5 0.9 0  0.55 0.9 0  0.6 0.9 0  0.65 0.9 0  0.7 0.9 0  0.75 0.9 0  0.8 0.9 0  0.85 0.9 0  0.9 0.9 0  0.95 0.9 0  1 0.9 0  0 0.95 0  0.05 0.95 0  0.1 0.95 0  0.15 0.95 0  0.2 0.95 0  0.25 0.95 0  0.3 0.95 0  0.35 0.95 0  0.4 0.95 0  0.45 0.95 0  0.5 0.95 0  0.55 0.95 0  0.6 0.95 0  0.65 0.95 0  0.7 0.95 0  0.75 0.95 0  0.8 0.95 0  0.85 0.95 0  0.9 0.95 0  0.95 0.95 0  1 0.95 0  0 1 0  0.05 1 0  0.1 1 0  0.15 1 0  0.2 1 0  0.25 1 0  0.3 1 0  0.35 1 0  0.4 1 0  0.45 1 0  0.5 1 0  0.55 1 0  0.6 1 0  0.65 1 0  0.7 1 0  0.75 1 0  0.8 1 0  0.85 1 0  0.9 1 0  0.95 1 0  1 1 0  </DataArray>
</Points>
<Cells>
[...]
<PointData  Scalars="f_6"> 
<DataArray  type="Float64"  Name="f_6"  format="ascii">-2.0000000000000000e+00  -1.8499999999999999e+00  -1.7000000000000000e+00  -1.5500000000000000e+00  -1.4000000000000001e+00  -1.2500000000000000e+00  -1.0999999999999999e+00  -9.4999999999999996e-01  -7.9999999999999982e-01  -6.5000000000000013e-01  -5.0000000000000000e-01  -3.4999999999999987e-01  -2.0000000000000007e-01  -4.9999999999999933e-02  9.9999999999999867e-02  2.5000000000000000e-01  4.0000000000000013e-01  5.4999999999999993e-01  7.0000000000000007e-01  8.4999999999999987e-01  1.0000000000000000e+00  -2.0000000000000000e+00  -1.4560495665028426e+00  -1.2364205734930283e+00  -1.0941511793770451e+00  -9.7959008415322224e-01  -8.7624839720157044e-01  -7.7685238935031409e-01  -6.7745065043423724e-01  -5.7552575515338189e-01  -4.6937352267845239e-01  -3.5796494512222171e-01  -2.4087369213147081e-01  -1.1796613315406840e-01  1.1094820166384021e-02  1.4586791279769534e-01  2.8480276145972477e-01  4.2602648832733614e-01  5.6859973258914887e-01  7.1200047056145799e-01  8.5588702700982922e-01  1.0000000000000000e+00  -2.0000000000000000e+00  -1.3002988977290517e+00  -1.0639518577788545e+00  -9.2315172877675922e-01  -8.1511498085934697e-01  -7.2079643754844469e-01  -6.3209175089626224e-01  -5.4467352840090799e-01  -4.5580735961226176e-01  -3.6357779495587506e-01  -2.6659991261322397e-01  -1.6383996844222803e-01  -5.4299416111255959e-02  6.2922454610688891e-02  1.8742248798952157e-01  3.1731664471386750e-01  4.5070345926047001e-01  5.8637197146780173e-01  7.2351512264685325e-01  8.6154763747785879e-01  1.0000000000000000e+00  -2.0000000000000000e+00  -1.2154362915561407e+00  -9.6973785199885232e-01  -8.2812339095104048e-01  -7.2118354483806568e-01  -6.2907371704487580e-01  -5.4357731971508716e-01  -4.6037120008659527e-01  -3.7673774422384071e-01  -2.9072540370915229e-01  -2.0078454894338826e-01  -1.0552792441061297e-01  -3.4499531344629269e-03  1.0640878260317602e-01  2.2358293983583466e-01  3.4633787014575357e-01  4.7309873253287460e-01  6.0266957137473420e-01  7.3414041108029437e-01  8.6678840025475268e-01  1.0000000000000000e+00  -2.0000000000000000e+00  -1.1619761740200372e+00  -9.0932926564578942e-01  -7.6605680286182298e-01  -6.5866575071137767e-01  -5.6688992294084695e-01  -4.8245961693281730e-01  -4.0105441111177670e-01  -3.1996322872959598e-01  -2.3720912315865122e-01  -1.5114253376411729e-01  -6.0163755746716098e-02  3.7411739448722031e-02  1.4238702811973367e-01  2.5416261860488798e-01  3.7135316350043723e-01  4.9268402935054023e-01  6.1706717041796622e-01  7.4358855004483670e-01  8.7146555246085744e-01  1.0000000000000000e+00  -2.0000000000000000e+00  -1.1258016866213534e+00  -8.6775540312803923e-01  -7.2269824087559087e-01  -6.1441723642702839e-01  -5.2236699516666729e-01  -4.3822065109169533e-01  -3.5763672384126061e-01  -2.7788921851443338e-01  -1.9697095068597309e-01  -1.1316115190441531e-01  -2.4721748710048633e-02  6.9983091869375583e-02  1.7155906966166595e-01  2.7932734296354639e-01  3.9222813590056710e-01  5.0921705095088299e-01  6.2932653090175350e-01  7.5168106622022968e-01  8.7548525954384016e-01  1.0000000000000000e+00  -2.0000000000000000e+00  -1.1006149079846441e+00  -8.3843508002941169e-01  -6.9177987429029142e-01  -5.8257217816003637e-01  -4.9007289739125665e-01  -4.0589912293401753e-01  -3.2567764947126249e-01  -2.4665778115432499e-01  -1.6680155347354364e-01  -8.4335533026838522e-02  2.5663826130825833e-03  9.5389621163211563e-02  1.9453881569400799e-01  2.9935954768706452e-01  4.0901498618740201e-01  5.2262950765067095e-01  6.3934083601793468e-01  7.5832392439048879e-01  8.7879441949427295e-01  1.0000000000000000e+00  -2.0000000000000000e+00  -1.0832065056811815e+00  -8.1800004047153996e-01  -6.7006406990528611e-01  -5.6005506209494382e-01  -4.6710719920862864e-01  -3.8279196972169049e-01  -3.0270513117810410e-01  -2.2407075176917174e-01  -1.4482367832606194e-01  -6.3151167080244500e-02  2.2816635338881504e-02  1.1440874875629856e-01  2.1184702426408983e-01  3.1455704590330158e-01  4.2184275351130524e-01  5.3294515744646409e-01  6.4708338112882458e-01  7.6347937582951753e-01  8.8136849404276241e-01  1.0000000000000000e+00  -2.0000000000000000e+00  -1.0717843058147967e+00  -8.0455686554115358e-01  -6.5571380245029554e-01  -5.4510069773731540e-01  -4.5178511305100066e-01  -3.6730991959507242e-01  -2.8724748598232541e-01  -2.0880157728198964e-01  -1.2988592401741822e-01  -4.8659139231690789e-02  3.6757878566196382e-02  1.2757737298853983e-01  2.2388348670275096e-01  3.2517885815074660e-01  4.3085382450805321e-01  5.4022498749505510e-01  6.5256815522138190e-01  7.6714170375599500e-01  8.8320018084725838e-01  1.0000000000000000e+00  -2.0000000000000000e+00  -1.0652735703181297e+00  -7.9697546142503684e-01  -6.4763419147230361e-01  -5.3665602404674739e-01  -4.4309945140672991e-01  -3.5850006479335927e-01  -2.7841875366494201e-01  -2.0004727614979190e-01  -1.2128632461530098e-01  -4.0277135345336910e-02  4.4857674991829723e-02  1.3525937792891363e-01  2.3093069140762765e-01  3.3142107548888078e-01  4.3616869887510623e-01  5.4453281280432120e-01  6.5582254850565336e-01  7.6931910312582230e-01  8.8429052559027688e-01  1.0000000000000000e+00  -2.0000000000000000e+00  -1.0629970573605287e+00  -7.9456583788127577e-01  -6.4517533682801398e-01  -5.3411032976424655e-01  -4.4047650544579997e-01  -3.5582663777493578e-01  -2.7572510829388031e-01  -1.9736244425853841e-01  -1.1863607997399687e-01  -3.7682046880922859e-02  4.7379852765147300e-02  1.3767177232765757e-01  2.3315882550996517e-01  3.3340605352204300e-01  4.3786708269916919e-01  5.4591501634146999e-01  6.5687012287108748e-01  7.7002163465136420e-01  8.8464281838802594e-01  1.0000000000000000e+00  -2.0000000000000000e+00  -1.0645366307342607e+00  -7.9693762806430368e-01  -6.4800306771807159e-01  -5.3717756917721760e-01  -4.4366885298916509e-01  -3.5907379427983099e-01  -2.7897794335686732e-01  -2.0058365928297114e-01  -1.2179659962545314e-01  -4.0760839870967777e-02  4.4413359872770584e-02  1.3488903310660416e-01  2.3062678478253212e-01  3.3117723039015673e-01  4.3597856205805791e-01  5.4439004699130178e-01  6.5572129198586127e-01  7.6925449422052106e-01  8.8425911331046292e-01  1.0000000000000000e+00  -2.0000000000000000e+00  -1.0697070299277347e+00  -8.0397089013378131e-01  -6.5607060281547891e-01  -5.4586924283626936e-01  -4.5272947131854491e-01  -3.6832115170177532e-01  -2.8827126272151010e-01  -2.0980930455219199e-01  -1.3086237301107503e-01  -4.9597149442971229e-02  3.5880828437615350e-02  1.2684421544345673e-01  2.2328205012340227e-01  3.2469752119799455e-01  4.3047988815160421e-01  5.3994531757981767e-01  6.5237050386053541e-01  7.6701593693439585e-01  8.8313914063330401e-01  1.0000000000000000e+00  -2.0000000000000000e+00  -1.0786241612716609e+00  -8.1587915657901966e-01  -6.6967301784537292e-01  -5.6054105201031912e-01  -4.6805185213206935e-01  -3.8397845356685378e-01  -3.0401160674617883e-01  -2.2542503766594760e-01  -1.4618182466424071e-01  -6.4486810461809735e-02  2.1531693916388463e-02  1.1332495010620533e-01  2.1095967906962540e-01  3.1385091612681515e-01  4.2129815177054641e-01  5.3254083131582908e-01  6.4679946894206752e-01  7.6329960902322225e-01  8.8128151228835772e-01  1.0000000000000000e+00  -2.0000000000000000e+00  -1.0918798586600009e+00  -8.3337731192101783e-01  -6.8959684285834721e-01  -5.8202505517021641e-01  -4.9048712684569606e-01  -4.0688957826844868e-01  -3.2700982840981485e-01  -2.4818316130945625e-01  -1.6842349546957527e-01  -8.5990373873455955e-02  9.2071939929946835e-04  9.3964211995351002e-02  1.9338079992207866e-01  2.9844831246909492e-01  4.0832097148793745e-01  5.2212038697088459e-01  6.3898693156868480e-01  7.5810151792806757e-01  8.7868729949690516e-01  1.0000000000000000e+00  -2.0000000000000000e+00  -1.1108713462022242e+00  -8.5801057375394540e-01  -7.1742098520493625e-01  -6.1190055506827457e-01  -5.2158730679221754e-01  -4.3855029607925594e-01  -3.5867384469716951e-01  -2.7936885415289414e-01  -1.9871325947662985e-01  -1.1504153566745312e-01  -2.6658958848892359e-02  6.8224032949116220e-02  1.7015099615424314e-01  2.7824056233954847e-01  3.9141703474122358e-01  5.0863281351108680e-01  6.2892635243371953e-01  7.5143223162345785e-01  8.7536616777119625e-01  1.0000000000000000e+00  -2.0000000000000000e+00  -1.1384279530236228e+00  -8.9281732822322868e-01  -7.5614075643331236e-01  -6.5306370602765895e-01  -5.6411900007467985e-01  -4.8156704161576397e-01  -4.0141147456594428e-01  -3.2114250116672005e-01  -2.3890816337753160e-01  -1.5314092488873185e-01  -6.2307827833064128e-02  3.5341555416926074e-02  1.4075858940622896e-01  2.5294590599363237e-01  3.7047379162632177e-01  4.9206747989851873e-01  6.1665343303164877e-01  7.4333488836084805e-01  8.7134513996442220e-01  1.0000000000000000e+00  -2.0000000000000000e+00  -1.1802188145633414e+00  -9.4391314640619328e-01  -8.1168672228907490e-01  -7.1111510877344697e-01  -6.2330326619943754e-01  -5.4074573596035957e-01  -4.5956510116798405e-01  -3.7731277435783817e-01  -2.9219830047265094e-01  -2.0278186940615406e-01  -1.0777419070230473e-01  -5.7365417213655519e-03  1.0459590006011396e-01  2.2231068060243087e-01  3.4546474587191239e-01  4.7250988142501760e-01  6.0228501143350865e-01  7.3390874882386281e-01  8.6667950372564617e-01  1.0000000000000000e+00  -2.0000000000000000e+00  -1.2489985689393057e+00  -1.0254770542139799e+00  -8.9768925070873906e-01  -7.9864190795181822e-01  -7.1054544239017170e-01  -6.2625695632285272e-01  -5.4201518754076938e-01  -4.5538344164938754e-01  -3.6461063334487731e-01  -2.6845370312512074e-01  -1.6604546891456778e-01  -5.6580966937848982e-02  6.1039403672316153e-02  1.8623617048406518e-01  3.1656462983387895e-01  4.5022228849613033e-01  5.8606798245350578e-01  7.2333559177544782e-01  8.6146412611429957e-01  1.0000000000000000e+00  -2.0000000000000000e+00  -1.3850725421921277e+00  -1.1835033115668947e+00  -1.0575556128873893e+00  -9.5439487393083500e-01  -8.5940223271292082e-01  -7.6642135123834920e-01  -6.7196494090637571e-01  -5.7360451350753650e-01  -4.6968478914259765e-01  -3.5940045628848816e-01  -2.4268593714446701e-01  -1.1977491829929807e-01  9.5483863430680504e-03  1.4502996782763528e-01  2.8433531448340826e-01  4.2574666027211894e-01  5.6842903810893675e-01  7.1190150971012267e-01  8.5584140895610550e-01  1.0000000000000000e+00  -2.0000000000000000e+00  -1.8499999999999999e+00  -1.7000000000000000e+00  -1.5500000000000000e+00  -1.4000000000000001e+00  -1.2500000000000000e+00  -1.0999999999999999e+00  -9.4999999999999996e-01  -7.9999999999999993e-01  -6.5000000000000013e-01  -5.0000000000000000e-01  -3.4999999999999987e-01  -2.0000000000000007e-01  -4.9999999999999933e-02  9.9999999999999867e-02  2.5000000000000000e-01  4.0000000000000013e-01  5.4999999999999993e-01  7.0000000000000007e-01  8.4999999999999987e-01  1.0000000000000000e+00  </DataArray> 
</PointData> 
</Piece>
</UnstructuredGrid>
</VTKFile>