<?xml version="1.0"?>
<VTKFile type="UnstructuredGrid"  version="0.1"  >
<UnstructuredGrid>
<Piece  NumberOfPoints="441" NumberOfCells="800">
<Points>
<DataArray  type="Float64"  NumberOfComponents="3"  format="ascii">0 0 0  0.05 0 0  0.1 0 0  0.15 0 0  0.2 0 0  0.25 0 0  0.3 0 0  0.35 0 0  0.4 0 0  0.45 0 0  0.5 0 0  0.55 0 0  0.6 0 0  0.65 0 0  0.7 0 0  0.75 0 0  0.8 0 0  0.85 0 0  0.9 0 0  0.95 0 0  1 0 0  0 0.05 0  0.05 0.05 0  0.1 0.05 0  0.15 0.05 0  0.2 0.05 0  0.25 0.05 0  0.3 0.05 0  0.35 0.05 0  0.4 0.05 0  0.45 0.05 0  0.5 0.05 0  0.55 0.05 0  0.6 0.05 0  0.65 0.05 0  0.7 0.05 0  0.75 0.05 0  0.8 0.05 0  0.85 0.05 0  0.9 0.05 0  0.95 0.05 0  1 0.05 0  0 0.1 0  0.05 0.1 0  0.1 0.1 0  0.15 0.1 0  0.2 0.1 0  0.25 0.1 0  0.3 0.1 0  0.35 0.1 0  0.4 0.1 0  0.45 0.1 0  0.5 0.1 0  0.55 0.1 0  0.6 0.1 0  0.65 0.1 0  0.7 0.1 0  0.75 0.1 0  0.8 0.1 0  0.85 0.1 0  0.9 0.1 0  0.95 0.1 0  1 0.1 0  0 0.15 0  0.05 0.15 0  0.1 0.15 0  0.15 0.15 0  0.2 0.15 0  0.25 0.15 0  0.3 0.15 0  0.35 0.15 0  0.4 0.15 0  0.45 0.15 0  0.5 0.15 0  0.55 0.15 0  0.6 0.15 0  0.65 0.15 0  0.7 0.15 0  0.75 0.15 0  0.8 0.15 0  0.85 0.15 0  0.9 0.15 0  0.95 0.15 0  1 0.15 0  0 0.2 0  0.05 0.2 0  0.1 0.2 0  0.15 0.2 0  0.2 0.2 0  0.25 0.2 0  0.3 0.2 0  0.35 0.2 0  0.4 0.2 0  0.45 0.2 0  0.5 0.2 0  0.55 0.2 0  0.6 0.2 0  0.65 0.2 0  0.7 0.2 0  0.75 0.2 0  0.8 0.2 0  0.85 0.2 0  0.9 0.2 0  0.95 0.2 0  1 0.2 0  0 0.25 0  0.05 0.25 0  0.1 0.25 0  0.15 0.25 0  0.2 0.25 0  0.25 0.25 0  0.3 0.25 0  0.35 0.25 0  0.4 0.25 0  0.45 0.25 0  0.5 0.25 0  0.55 0.25 0  0.6 0.25 0  0.65 0.25 0  0.7 0.25 0  0.75 0.25 0  0.8 0.25 0  0.85 0.25 0  0.9 0.25 0  0.95 0.25 0  1 0.25 0  0 0.3 0  0.05 0.3 0  0.1 0.3 0  0.15 0.3 0  0.2 0.3 0  0.25 0.3 0  0.3 0.3 0  0.35 0.3 0  0.4 0.3 0  0.45 0.3 0  0.5 0.3 0  0.55 0.3 0  0.6 0.3 0  0.65 0.3 0  0.7 0.3 0  0.75 0.3 0  0.8 0.3 0  0.85 0.3 0  0.9 0.3 0  0.95 0.3 0  1 0.3 0  0 0.35 0  0.05 0.35 0  0.1 0.35 0  0.15 0.35 0  0.2 0.35 0  0.25 0.35 0  0.3 0.35 0  0.35 0.35 0  0.4 0.35 0  0.45 0.35 0  0.5 0.35 0  0.55 0.35 0  0.6 0.35 0  0.65 0.35 0  0.7 0.35 0  0.75 0.35 0  0.8 0.35 0  0.85 0.35 0  0.9 0.35 0  0.95 0.35 0  1 0.35 0  0 0.4 0  0.05 0.4 0  0.1 0.4 0  0.15 0.4 0  0.2 0.4 0  0.25 0.4 0  0.3 0.4 0  0.35 0.4 0  0.4 0.4 0  0.45 0.4 0  0.5 0.4 0  0.55 0.4 0  0.6 0.4 0  0.65 0.4 0  0.7 0.4 0  0.75 0.4 0  0.8 0.4 0  0.85 0.4 0  0.9 0.4 0  0.95 0.4 0  1 0.4 0  0 0.45 0  0.05 0.45 0  0.1 0.45 0  0.15 0.45 0  0.2 0.45 0  0.25 0.45 0  0.3 0.45 0  0.35 0.45 0  0.4 0.45 0  0.45 0.45 0  0.5 0.45 0  0.55 0.45 0  0.6 0.45 0  0.65 0.45 0  0.7 0.45 0  0.75 0.45 0  0.8 0.45 0  0.85 0.45 0  0.9 0.45 0  0.95 0.45 0  1 0.45 0  0 0.5 0  0.05 0.5 0  0.1 0.5 0  0.15 0.5 0  0.2 0.5 0  0.25 0.5 0  0.3 0.5 0  0.35 0.5 0  0.4 0.5 0  0.45 0.5 0  0.5 0.5 0  0.55 0.5 0  0.6 0.5 0  0.65 0.5 0  0.7 0.5 0  0.75 0.5 0  0.8 0.5 0  0.85 0.5 0  0.9 0.5 0  0.95 0.5 0  1 0.5 0  0 0.55 0  0.05 0.55 0  0.1 0.55 0  0.15 0.55 0  0.2 0.55 0  0.25 0.55 0  0.3 0.55 0  0.35 0.55 0  0.4 0.55 0  0.45 0.55 0  0.5 0.55 0  0.55 0.55 0  0.6 0.55 0  0.65 0.55 0  0.7 0.55 0  0.75 0.55 0  0.8 0.55 0  0.85 0.55 0  0.9 0.55 0  0.95 0.55 0  1 0.55 0  0 0.6 0  0.05 0.6 0  0.1 0.6 0  0.15 0.6 0  0.2 0.6 0  0.25 0.6 0  0.3 0.6 0  0.35 0.6 0  0.4 0.6 0  0.45 0.6 0  0.5 0.6 0  0.55 0.6 0  0.6 0.6 0  0.65 0.6 0  0.7 0.6 0  0.75 0.6 0  0.8 0.6 0  0.85 0.6 0  0.9 0.6 0  0.95 0.6 0  1 0.6 0  0 0.65 0  0.05 0.65 0  0.1 0.65 0  0.15 0.65 0  0.2 0.65 0  0.25 0.65 0  0.3 0.65 0  0.35 0.65 0  0.4 0.65 0  0.45 0.65 0  0.5 0.65 0  0.55 0.65 0  0.6 0.65 0  0.65 0.65 0  0.7 0.65 0  0.75 0.65 0  0.8 0.65 0  0.85 0.65 0  0.9 0.65 0  0.95 0.65 0  1 0.65 0  0 0.7 0  0.05 0.7 0  0.1 0.7 0  0.15 0.7 0  0.2 0.7 0  0.25 0.7 0  0.3 0.7 0  0.35 0.7 0  0.4 0.7 0  0.45 0.7 0  0.5 0.7 0  0.55 0.7 0  0.6 0.7 0  0.65 0.7 0  0.7 0.7 0  0.75 0.7 0  0.8 0.7 0  0.85 0.7 0  0.9 0.7 0  0.95 0.7 0  1 0.7 0  0 0.75 0  0.05 0.75 0  0.1 0.75 0  0.15 0.75 0  0.2 0.75 0  0.25 0.75 0  0.3 0.75 0  0.35 0.75 0  0.4 0.75 0  0.45 0.75 0  0.5 0.75 0  0.55 0.75 0  0.6 0.75 0  0.65 0.75 0  0.7 0.75 0  0.75 0.75 0  0.8 0.75 0  0.85 0.75 0  0.9 0.75 0  0.95 0.75 0  1 0.75 0  0 0.8 0  0.05 0.8 0  0.1 0.8 0  0.15 0.8 0  0.2 0.8 0  0.25 0.8 0  0.3 0.8 0  0.35 0.8 0  0.4 0.8 0  0.45 0.8 0  0.5 0.8 0  0.55 0.8 0  0.6 0.8 0  0.65 0.8 0  0.7 0.8 0  0.75 0.8 0  0.8 0.8 0  0.85 0.8 0  0.9 0.8 0  0.95 0.8 0  1 0.8 0  0 0.85 0  0.05 0.85 0  0.1 0.85 0  0.15 0.85 0  0.2 0.85 0  0.25 0.85 0  0.3 0.85 0  0.35 0.85 0  0.4 0.85 0  0.45 0.85 0  0.5 0.85 0  0.55 0.85 0  0.6 0.85 0  0.65 0.85 0  0.7 0.85 0  0.75 0.85 0  0.8 0.85 0  0.85 0.85 0  0.9 0.85 0  0.95 0.85 0  1 0.85 0  0 0.9 0  0.05 0.9 0  0.1 0.9 0  0.15 0.9 0  0.2 0.9 0  0.25 0.9 0  0.3 0.9 0  0.35 0.9 0  0.4 0.9 0  0.45 0.9 0  0.5 0.9 0  0.55 0.9 0  0.6 0.9 0  0.65 0.9 0  0.7 0.9 0  0.75 0.9 0  0.8 0.9 0  0.85 0.9 0  0.9 0.9 0  0.95 0.9 0  1 0.9 0  0 0.95 0  0.05 0.95 0  0.1 0.95 0  0.15 0.95 0  0.2 0.95 0  0.25 0.95 0  0.3 0.95 0  0.35 0.95 0  0.4 0.95 0  0.45 0.95 0  0.5 0.95 0  0.55 0.95 0  0.6 0.95 0  0.65 0.95 0  0.7 0.95 0  0.75 0.95 0  0.8 0.95 0  0.85 0.95 0  0.9 0.95 0  0.95 0.95 0  1 0.95 0  0 1 0  0.05 1 0  0.1 1 0  0.15 1 0  0.2 1 0  0.25 1 0  0.3 1 0  0.35 1 0  0.4 1 0  0.45 1 0  0.5 1 0  0.55 1 0  0.6 1 0  0.65 1 0  0.7 1 0  0.75 1 0  0.8 1 0  0.85 1 0  0.9 1 0  0.95 1 0  1 1 0  </DataArray>
</Points>
<Cells>
[...]
<PointData  Scalars="f_6"> 
<DataArray  type="Float64"  Name="f_6"  format="ascii">-2.0000000000000000e+00  -1.8499999999999999e+00  -1.7000000000000000e+00  -1.5500000000000000e+00  -1.4000000000000001e+00  -1.2500000000000000e+00  -1.0999999999999999e+00  -9.5000000000000007e-01  -7.9999999999999993e-01  -6.5000000000000013e-01  -5.0000000000000000e-01  -3.4999999999999981e-01  -2.0000000000000007e-01  -4.9999999999999933e-02  9.9999999999999867e-02  2.5000000000000000e-01  4.0000000000000013e-01  5.4999999999999993e-01  7.0000000000000007e-01  8.4999999999999987e-01  1.0000000000000000e+00  -2.0000000000000000e+00  -2.0610731550851052e-01  4.3831619516812699e-02  1.1039399995843877e-01  1.3355778621033793e-01  1.3669367647756051e-01  1.2440654619908002e-01  9.9459209910394544e-02  6.1463477107667128e-02  -5.2908464178241096e-03  -4.9627858671447790e-02  -2.5044312669761436e-02  4.0366403309656365e-02  1.2249466049971793e-01  2.2080605072575971e-01  3.3533160496967135e-01  4.6171488249899617e-01  5.9341167247435944e-01  7.2780105802884631e-01  8.6359383880140972e-01  1.0000000000000000e+00  -2.0000000000000000e+00  8.8105784271743620e-02  2.2529312629385895e-01  2.4148642733243075e-01  2.3987285428485580e-01  2.2989187027429500e-01  2.0821138616421184e-01  1.7687393615164465e-01  1.5043663901799909e-01  1.2714632708394019e-01  1.1125344215357053e-01  1.1875289073682843e-01  1.5945648512495375e-01  2.2581466907529393e-01  3.1013394903061353e-01  4.0880548665392941e-01  5.1811625255195359e-01  6.3413074936959546e-01  7.5419872083961537e-01  8.7657429717679303e-01  1.0000000000000000e+00  -2.0000000000000000e+00  1.7491680034371843e-01  2.5508598825507467e-01  2.5975892458234923e-01  2.5592515802533328e-01  2.4801028205468195e-01  2.3705592004403814e-01  2.2182144796335704e-01  2.0523530491863567e-01  1.9507408055425191e-01  1.9592399956897416e-01  2.1385305321359835e-01  2.5289197737803654e-01  3.1117358164589054e-01  3.8510958966747127e-01  4.7164014006347910e-01  5.6781389168529328e-01  6.7079635161245432e-01  7.7828877878322678e-01  8.8850462906614736e-01  1.0000000000000000e+00  -2.0000000000000000e+00  2.1411303049863578e-01  2.6415572036616158e-01  2.6794889041534797e-01  2.6706799427047995e-01  2.6378221848943995e-01  2.5871162981298945e-01  2.5331112793676469e-01  2.4978705466895179e-01  2.5199069064545754e-01  2.6351542235447606e-01  2.8784334517055438e-01  3.2708478952770370e-01  3.8087809046276017e-01  4.4749068792990199e-01  5.2483159224722264e-01  6.1070282251328611e-01  7.0295198661170188e-01  7.9965541361469006e-01  8.9915544030456951e-01  1.0000000000000000e+00  -2.0000000000000000e+00  2.3584433045449840e-01  2.6897980542567329e-01  2.7463267414569714e-01  2.7700576360784085e-01  2.7846007517262417e-01  2.8011359713190076e-01  2.8292437930176029e-01  2.8861109517494937e-01  2.9958620500415056e-01  3.1830365403291810e-01  3.4692011558643926e-01  3.8672574509946389e-01  4.3776330274754449e-01  4.9914347934215403e-01  5.6949271848222305e-01  6.4721381950892642e-01  7.3065335870637760e-01  8.1822544875926240e-01  9.0846171853744140e-01  1.0000000000000000e+00  -2.0000000000000000e+00  2.4834166667223681e-01  2.7211205169146008e-01  2.8063579214210166e-01  2.8653300179860053e-01  2.9293872146131500e-01  3.0035830424022908e-01  3.0966169696342638e-01  3.2214674172493485e-01  3.3943938016327718e-01  3.6319287318660670e-01  3.9480771804282094e-01  4.3513477253616828e-01  4.8430589608579988e-01  5.4182720820894681e-01  6.0678198283058959e-01  6.7800637833381905e-01  7.5422217994562035e-01  8.3413130417854109e-01  9.1646598508593391e-01  1.0000000000000000e+00  -2.0000000000000000e+00  2.5287368946811895e-01  2.7443111796875835e-01  2.8574942577475726e-01  2.9555172998314488e-01  3.0640350463380639e-01  3.1871920140427440e-01  3.3321736258678131e-01  3.5087479459808629e-01  3.7283170073741662e-01  4.0022074050741069e-01  4.3398311086206970e-01  4.7469973091658835e-01  5.2249830085054016e-01  5.7707747457724412e-01  6.3780162629736981e-01  7.0380753105014005e-01  7.7409767856374356e-01  8.4761160292334792e-01  9.2327091762775337e-01  1.0000000000000000e+00  -2.0000000000000000e+00  2.5152514996666098e-01  2.7608148137577304e-01  2.8977985165483161e-01  3.0352098772541564e-01  3.1840436568649122e-01  3.3489763415628110e-01  3.5361375738133843e-01  3.7530337334321223e-01  4.0079188768089230e-01  4.3087527724355013e-01  4.6620425398145870e-01  5.0718273941757541e-01  5.5391010182252809e-01  6.0618276295211981e-01  6.6353951673150491e-01  7.2532444100562754e-01  7.9074940033586671e-01  8.5894651132335342e-01  9.2900608250173222e-01  1.0000000000000000e+00  -2.0000000000000000e+00  2.4601636675668231e-01  2.7663387794506550e-01  2.9308249474279369e-01  3.1034800357719466e-01  3.2879533623046220e-01  3.4885321215302045e-01  3.7103665943907865e-01  3.9593305371253174e-01  4.2415719939939023e-01  4.5628422680443881e-01  4.9277588840263931e-01  5.3391687094972662e-01  5.7977660406987719e-01  6.3020395867720191e-01  6.8484923667090214e-01  7.4320131590499849e-01  8.0462897045074233e-01  8.6841895953246695e-01  9.3380690105582276e-01  1.0000000000000000e+00  -2.0000000000000000e+00  2.3887451010387170e-01  2.7603027174345462e-01  2.9556824579408275e-01  3.1599319561010719e-01  3.3757576350514257e-01  3.6068321878625975e-01  3.8574661450942405e-01  4.1323498266844610e-01  4.4361962939969807e-01  4.7732854217217591e-01  5.1469820187493320e-01  5.5593225190881435e-01  6.0107548483005235e-01  6.5000723101590918e-01  7.0245215536990280e-01  7.5800261549272274e-01  8.1614620602963750e-01  8.7629345529994895e-01  9.3780256218909175e-01  1.0000000000000000e+00  -2.0000000000000000e+00  2.3112358051996054e-01  2.7460285549224961e-01  2.9716702107997545e-01  3.2048076956400889e-01  3.4483130339374130e-01  3.7055728497745211e-01  3.9803159714391206e-01  4.2764063305213046e-01  4.5975779335878020e-01  4.9471211060963322e-01  5.3275612501610337e-01  5.7403844998054598e-01  6.1858585232560848e-01  6.6629732518647999e-01  7.1694953830007779e-01  7.7021078466635240e-01  8.2565978287513775e-01  8.8280609344860028e-01  9.4110989240059506e-01  1.0000000000000000e+00  -2.0000000000000000e+00  2.2336500846818397e-01  2.7265258240574808e-01  2.9801621346956053e-01  3.2393155817221236e-01  3.5071139552836089e-01  3.7868302058589481e-01  4.0818185603664203e-01  4.3953815903738269e-01  4.7305880037365888e-01  5.0900598189147350e-01  5.4757573759930134e-01  5.8887957067165764e-01  6.3293214930535557e-01  6.7964667910432541e-01  7.2883788797757554e-01  7.8023120199747198e-01  8.3347604735596115e-01  8.8816124321872048e-01  9.4383091396468688e-01  1.0000000000000000e+00  -2.0000000000000000e+00  2.1602369157517415e-01  2.7045583703576731e-01  2.9831369222030635e-01  3.2651785412691908e-01  3.5539969996159526e-01  3.8528154580112428e-01  4.1647464737937850e-01  4.4927134668709956e-01  4.8393326720699881e-01  5.2067727898330052e-01  5.5966127281797140e-01  6.0097194580142743e-01  6.4461649511983177e-01  6.9051935394789088e-01  7.3852413250842641e-01  7.8840008798999905e-01  8.3985196133251550e-01  8.9253191810563415e-01  9.4605252023943198e-01  1.0000000000000000e+00  -2.0000000000000000e+00  2.0942304615066065e-01  2.6825998859417410e-01  2.9826486424897830e-01  3.2842646615356252e-01  3.5908800438997640e-01  3.9056881527762860e-01  4.2316384099264831e-01  4.5713931312463824e-01  4.9272564278393621e-01  5.3010859401675814e-01  5.6942012888785631e-01  6.1073044459624959e-01  6.5404253142465307e-01  6.9929010905898026e-01  7.4633920011824018e-01  7.9499305612158266e-01  8.4499979187846730e-01  8.9606194763186886e-01  9.4784724888740668e-01  1.0000000000000000e+00  -2.0000000000000000e+00  2.0382457278047852e-01  2.6627932532438225e-01  2.9805931002787017e-01  3.2983514184837642e-01  3.6195703616711938e-01  3.9474186992676535e-01  4.2847258818894796e-01  4.6339642203486880e-01  4.9972139678734967e-01  5.3761132541193968e-01  5.7718020412044613e-01  6.1848717227106076e-01  6.6153307692355134e-01  7.0625935074513757e-01  7.5254950278397148e-01  8.0023314449962391e-01  8.4909220242790251e-01  8.9886883165596776e-01  9.4927452767832654e-01  1.0000000000000000e+00  -2.0000000000000000e+00  1.9944057630807305e-01  2.6468856371806787e-01  2.9785790868974360e-01  3.3089775504495372e-01  3.6416312850335963e-01  3.9796904007336587e-01  4.3258821980150902e-01  4.6825239003853891e-01  5.0515219691865432e-01  5.4343510672320527e-01  5.8320218991092809e-01  6.2450496344399631e-01  6.6734325325335409e-01  7.1166471421404720e-01  7.5736631577288405e-01  8.0429781666503941e-01  8.5226704167755096e-01  9.0104664888577379e-01  9.5038203016993172e-01  1.0000000000000000e+00  -2.0000000000000000e+00  1.9635597357228174e-01  2.6360976206909731e-01  2.9778600596808291e-01  3.3173484113833546e-01  3.6582868272799934e-01  4.0038294206182956e-01  4.3565886090518341e-01  4.7187272139912384e-01  5.0919989412552324e-01  5.4777471465129934e-01  5.8768848535606455e-01  6.2898723834064252e-01  6.7167025843182193e-01  7.1568993708481299e-01  7.6095322942847743e-01  8.0732476471009906e-01  8.5463149873148847e-01  9.0266869203964428e-01  9.5120694411562656e-01  1.0000000000000000e+00  -2.0000000000000000e+00  1.9417939363440606e-01  2.6312480545023625e-01  2.9794151197515539e-01  3.3242692081230596e-01  3.6703381920847272e-01  4.0207518454076940e-01  4.3779156035827105e-01  4.7437974052724996e-01  5.1199994353301559e-01  5.5077537240040408e-01  5.9078979852138780e-01  6.3208524613068762e-01  6.7466060504847769e-01  7.1847154626490572e-01  7.6343190014611351e-01  8.0941651401539116e-01  8.5626549649866035e-01  9.0378967642568897e-01  9.5177705425293091e-01  1.0000000000000000e+00  -2.0000000000000000e+00  1.9144731977397203e-01  2.6354219607742385e-01  2.9842831566999645e-01  3.3299751092726038e-01  3.6780448875281585e-01  4.0309241653450417e-01  4.3905245545988197e-01  4.7585473681858936e-01  5.1364476707888485e-01  5.5253703289591405e-01  5.9261009019839572e-01  6.3390334261224268e-01  6.7641536936649593e-01  7.2010374278021883e-01  7.6488631087567971e-01  8.1064389470669229e-01  8.5722429682207335e-01  9.0444746291152023e-01  9.5211159647040822e-01  1.0000000000000000e+00  -2.0000000000000000e+00  1.9070731930354215e-01  2.6674122498666863e-01  2.9923204370014611e-01  3.3333031847392319e-01  3.6809420834102613e-01  4.0343753738454952e-01  4.3947110812816353e-01  4.7634198420834073e-01  5.1418735506802060e-01  5.5311790190597176e-01  5.9321018676403892e-01  6.3450266475339212e-01  6.7699378702504454e-01  7.2064174461379416e-01  7.6536570586969466e-01  8.1104845711362505e-01  8.5754033317142075e-01  9.0466428192791093e-01  9.5222186871718206e-01  1.0000000000000000e+00  </DataArray> 
</PointData> 
</Piece>
</UnstructuredGrid>
</VTKFile>