<?xml version="1.0"?>
<VTKFile type="UnstructuredGrid"  version="0.1"  >
<UnstructuredGrid>
<Piece  NumberOfPoints="4225" NumberOfCells="8192">
<Points>
<DataArray  type="Float64"  NumberOfComponents="3"  format="ascii">0 0 0  0.015625 0 0  0.03125 0 0  0.046875 0 0  0.0625 0 0  0.078125 0 0  0.09375 0 0  0.109375 0 0  0.125 0 0  0.140625 0 0  0.15625 0 0  0.171875 0 0  0.1875 0 0  0.203125 0 0  0.21875 0 0  0.234375 0 0  0.25 0 0  0.265625 0 0  0.28125 0 0  0.296875 0 0  0.3125 0 0  0.328125 0 0  0.34375 0 0  0.359375 0 0  0.375 0 0  0.390625 0 0  0.40625 0 0  0.421875 0 0  0.4375 0 0  0.453125 0 0  0.46875 0 0  0.484375 0 0  0.5 0 0  0.515625 0 0  0.53125 0 0  0.546875 0 0  0.5625 0 0  0.578125 0 0  0.59375 0 0  0.609375 0 0  0.625 0 0  0.640625 0 0  0.65625 0 0  0.671875 0 0  0.6875 0 0  0.703125 0 0  0.71875 0 0  0.734375 0 0  0.75 0 0  0.765625 0 0  0.78125 0 0  0.796875 0 0  0.8125 0 0  0.828125 0 0  0.84375 0 0  0.859375 0 0  0.875 0 0  0.890625 0 0  0.90625 0 0  0.921875 0 0  0.9375 0 0  0.953125 0 0  0.96875 0 0  0.984375 0 0  1 0 0  0 0.015625 0  0.015625 0.015625 0  0.03125 0.015625 0  0.046875 0.015625 0  0.0625 0.015625 0  0.078125 0.015625 0  0.09375 0.015625 0  0.109375 0.015625 0  0.125 0.015625 0  0.140625 0.015625 0  0.15625 0.015625 0  0.171875 0.015625 0  0.1875 0.015625 0  0.203125 0.015625 0  0.21875 0.015625 0  0.234375 0.015625 0  0.25 0.015625 0  0.265625 0.015625 0  0.28125 0.015625 0  0.296875 0.015625 0  0.3125 0.015625 0  0.328125 0.015625 0  0.34375 0.015625 0  0.359375 0.015625 0  0.375 0.015625 0  0.390625 0.015625 0  0.40625 0.015625 0  0.421875 0.015625 0  0.4375 0.015625 0  0.453125 0.015625 0  0.46875 0.015625 0  0.484375 0.015625 0  0.5 0.015625 0  0.515625 0.015625 0  0.53125 0.015625 0  0.546875 0.015625 0  0.5625 0.015625 0  0.578125 0.015625 0  0.59375 0.015625 0  0.609375 0.015625 0  0.625 0.015625 0  0.640625 0.015625 0  0.65625 0.015625 0  0.671875 0.015625 0  0.6875 0.015625 0  0.703125 0.015625 0  0.71875 0.015625 0  0.734375 0.015625 0  0.75 0.015625 0  0.765625 0.015625 0  0.78125 0.015625 0  0.796875 0.015625 0  0.8125 0.015625 0  0.828125 0.015625 0  0.84375 0.015625 0  0.859375 0.015625 0  0.875 0.015625 0  0.890625 0.015625 0  0.90625 0.015625 0  0.921875 0.015625 0  0.9375 0.015625 0  0.953125 0.015625 0  0.96875 0.015625 0  0.984375 0.015625 0  1 0.015625 0  0 0.03125 0  0.015625 0.03125 0  0.03125 0.03125 0  0.046875 0.03125 0  0.0625 0.03125 0  0.078125 0.03125 0  0.09375 0.03125 0  0.109375 0.03125 0  0.125 0.03125 0  0.140625 0.03125 0  0.15625 0.03125 0  0.171875 0.03125 0  0.1875 0.03125 0  0.203125 0.03125 0  0.21875 0.03125 0  0.234375 0.03125 0  0.25 0.03125 0  0.265625 0.03125 0  0.28125 0.03125 0  0.296875 0.03125 0  0.3125 0.03125 0  0.328125 0.03125 0  0.34375 0.03125 0  0.359375 0.03125 0  0.375 0.03125 0  0.390625 0.03125 0  0.40625 0.03125 0  0.421875 0.03125 0  0.4375 0.03125 0  0.453125 0.03125 0  0.46875 0.03125 0  0.484375 0.03125 0  0.5 0.03125 0  0.515625 0.03125 0  0.53125 0.03125 0  0.546875 0.03125 0  0.5625 0.03125 0  0.578125 0.03125 0  0.59375 0.03125 0  0.609375 0.03125 0  0.625 0.03125 0  0.640625 0.03125 0  0.65625 0.03125 0  0.671875 0.03125 0  0.6875 0.03125 0  0.703125 0.03125 0  0.71875 0.03125 0  0.734375 0.03125 0  0.75 0.03125 0  0.765625 0.03125 0  0.78125 0.03125 0  0.796875 0.03125 0  0.8125 0.03125 0  0.828125 0.03125 0  0.84375 0.03125 0  0.859375 0.03125 0  0.875 0.03125 0  0.890625 0.03125 0  0.90625 0.03125 0  0.921875 0.03125 0  0.9375 0.03125 0  0.953125 0.03125 0  0.96875 0.03125 0  0.984375 0.03125 0  1 0.03125 0  0 0.046875 0  0.015625 0.046875 0  0.03125 0.046875 0  0.046875 0.046875 0  0.0625 0.046875 0  0.078125 0.046875 0  0.09375 0.046875 0  0.109375 0.046875 0  0.125 0.046875 0  0.140625 0.046875 0  0.15625 0.046875 0  0.171875 0.046875 0  0.1875 0.046875 0  0.203125 0.046875 0  0.21875 0.046875 0  0.234375 0.046875 0  0.25 0.046875 0  0.265625 0.046875 0  0.28125 0.046875 0  0.296875 0.046875 0  0.3125 0.046875 0  0.328125 0.046875 0  0.34375 0.046875 0  0.359375 0.046875 0  0.375 0.046875 0  0.390625 0.046875 0  0.40625 0.046875 0  0.421875 0.046875 0  0.4375 0.046875 0  0.453125 0.046875 0  0.46875 0.046875 0  0.484375 0.046875 0  0.5 0.046875 0  0.515625 0.046875 0  0.53125 0.046875 0  0.546875 0.046875 0  0.5625 0.046875 0  0.578125 0.046875 0  0.59375 0.046875 0  0.609375 0.046875 0  0.625 0.046875 0  0.640625 0.046875 0  0.65625 0.046875 0  0.671875 0.046875 0  0.6875 0.046875 0  0.703125 0.046875 0  0.71875 0.046875 0  0.734375 0.046875 0  0.75 0.046875 0  0.765625 0.046875 0  0.78125 0.046875 0  0.796875 0.046875 0  0.8125 0.046875 0  0.828125 0.046875 0  0.84375 0.046875 0  0.859375 0.046875 0  0.875 0.046875 0  0.890625 0.046875 0  0.90625 0.046875 0  0.921875 0.046875 0  0.9375 0.046875 0  0.953125 0.046875 0  0.96875 0.046875 0  0.984375 0.046875 0  1 0.046875 0  0 0.0625 0  0.015625 0.0625 0  0.03125 0.0625 0  0.046875 0.0625 0  0.0625 0.0625 0  0.078125 0.0625 0  0.09375 0.0625 0  0.109375 0.0625 0  0.125 0.0625 0  0.140625 0.0625 0  0.15625 0.0625 0  0.171875 0.0625 0  0.1875 0.0625 0  0.203125 0.0625 0  0.21875 0.0625 0  0.234375 0.0625 0  0.25 0.0625 0  0.265625 0.0625 0  0.28125 0.0625 0  0.296875 0.0625 0  0.3125 0.0625 0  0.328125 0.0625 0  0.34375 0.0625 0  0.359375 0.0625 0  0.375 0.0625 0  0.390625 0.0625 0  0.40625 0.0625 0  0.421875 0.0625 0  0.4375 0.0625 0  0.453125 0.0625 0  0.46875 0.0625 0  0.484375 0.0625 0  0.5 0.0625 0  0.515625 0.0625 0  0.53125 0.0625 0  0.546875 0.0625 0  0.5625 0.0625 0  0.578125 0.0625 0  0.59375 0.0625 0  0.609375 0.0625 0  0.625 0.0625 0  0.640625 0.0625 0  0.65625 0.0625 0  0.671875 0.0625 0  0.6875 0.0625 0  0.703125 0.0625 0  0.71875 0.0625 0  0.734375 0.0625 0  0.75 0.0625 0  0.765625 0.0625 0  0.78125 0.0625 0  0.796875 0.0625 0  0.8125 0.0625 0  0.828125 0.0625 0  0.84375 0.0625 0  0.859375 0.0625 0  0.875 0.0625 0  0.890625 0.0625 0  0.90625 0.0625 0  0.921875 0.0625 0  0.9375 0.0625 0  0.953125 0.0625 0  0.96875 0.0625 0  0.984375 0.0625 0  1 0.0625 0  0 0.078125 0  0.015625 0.078125 0  0.03125 0.078125 0  0.046875 0.078125 0  0.0625 0.078125 0  0.078125 0.078125 0  0.09375 0.078125 0  0.109375 0.078125 0  0.125 0.078125 0  0.140625 0.078125 0  0.15625 0.078125 0  0.171875 0.078125 0  0.1875 0.078125 0  0.203125 0.078125 0  0.21875 0.078125 0  0.234375 0.078125 0  0.25 0.078125 0  0.265625 0.078125 0  0.28125 0.078125 0  0.296875 0.078125 0  0.3125 0.078125 0  0.328125 0.078125 0  0.34375 0.078125 0  0.359375 0.078125 0  0.375 0.078125 0  0.390625 0.078125 0  0.40625 0.078125 0  0.421875 0.078125 0  0.4375 0.078125 0  0.453125 0.078125 0  0.46875 0.078125 0  0.484375 0.078125 0  0.5 0.078125 0  0.515625 0.078125 0  0.53125 0.078125 0  0.546875 0.078125 0  0.5625 0.078125 0  0.578125 0.078125 0  0.59375 0.078125 0  0.609375 0.078125 0  0.625 0.078125 0  0.640625 0.078125 0  0.65625 0.078125 0  0.671875 0.078125 0  0.6875 0.078125 0  0.703125 0.078125 0  0.71875 0.078125 0  0.734375 0.078125 0  0.75 0.078125 0  0.765625 0.078125 0  0.78125 0.078125 0  0.796875 0.078125 0  0.8125 0.078125 0  0.828125 0.078125 0  0.84375 0.078125 0  0.859375 0.078125 0  0.875 0.078125 0  0.890625 0.078125 0  0.90625 0.078125 0  0.921875 0.078125 0  0.9375 0.078125 0  0.953125 0.078125 0  0.96875 0.078125 0  0.984375 0.078125 0  1 0.078125 0  0 0.09375 0  0.015625 0.09375 0  0.03125 0.09375 0  0.046875 0.09375 0  0.0625 0.09375 0  0.078125 0.09375 0  0.09375 0.09375 0  0.109375 0.09375 0  0.125 0.09375 0  0.140625 0.09375 0  0.15625 0.09375 0  0.171875 0.09375 0  0.1875 0.09375 0  0.203125 0.09375 0  0.21875 0.09375 0  0.234375 0.09375 0  0.25 0.09375 0  0.265625 0.09375 0  0.28125 0.09375 0  0.296875 0.09375 0  0.3125 0.09375 0  0.328125 0.09375 0  0.34375 0.09375 0  0.359375 0.09375 0  0.375 0.09375 0  0.390625 0.09375 0  0.40625 0.09375 0  0.421875 0.09375 0  0.4375 0.09375 0  0.453125 0.09375 0  0.46875 0.09375 0  0.484375 0.09375 0  0.5 0.09375 0  0.515625 0.09375 0  0.53125 0.09375 0  0.546875 0.09375 0  0.5625 0.09375 0  0.578125 0.09375 0  0.59375 0.09375 0  0.609375 0.09375 0  0.625 0.09375 0  0.640625 0.09375 0  0.65625 0.09375 0  0.671875 0.09375 0  0.6875 0.09375 0  0.703125 0.09375 0  0.71875 0.09375 0  0.734375 0.09375 0  0.75 0.09375 0  0.765625 0.09375 0  0.78125 0.09375 0  0.796875 0.09375 0  0.8125 0.09375 0  0.828125 0.09375 0  0.84375 0.09375 0  0.859375 0.09375 0  0.875 0.09375 0  0.890625 0.09375 0  0.90625 0.09375 0  0.921875 0.09375 0  0.9375 0.09375 0  0.953125 0.09375 0  0.96875 0.09375 0  0.984375 0.09375 0  1 0.09375 0  0 0.109375 0  0.015625 0.109375 0  0.03125 0.109375 0  0.046875 0.109375 0  0.0625 0.109375 0  0.078125 0.109375 0  0.09375 0.109375 0  0.109375 0.109375 0  0.125 0.109375 0  0.140625 0.109375 0  0.15625 0.109375 0  0.171875 0.109375 0  0.1875 0.109375 0  0.203125 0.109375 0  0.21875 0.109375 0  0.234375 0.109375 0  0.25 0.109375 0  0.265625 0.109375 0  0.28125 0.109375 0  0.296875 0.109375 0  0.3125 0.109375 0  0.328125 0.109375 0  0.34375 0.109375 0  0.359375 0.109375 0  0.375 0.109375 0  0.390625 0.109375 0  0.40625 0.109375 0  0.421875 0.109375 0  0.4375 0.109375 0  0.453125 0.109375 0  0.46875 0.109375 0  0.484375 0.109375 0  0.5 0.109375 0  0.515625 0.109375 0  0.53125 0.109375 0  0.546875 0.109375 0  0.5625 0.109375 0  0.578125 0.109375 0  0.59375 0.109375 0  0.609375 0.109375 0  0.625 0.109375 0  0.640625 0.109375 0  0.65625 0.109375 0  0.671875 0.109375 0  0.6875 0.109375 0  0.703125 0.109375 0  0.71875 0.109375 0  0.734375 0.109375 0  0.75 0.109375 0  0.765625 0.109375 0  0.78125 0.109375 0  0.796875 0.109375 0  0.8125 0.109375 0  0.828125 0.109375 0  0.84375 0.109375 0  0.859375 0.109375 0  0.875 0.109375 0  0.890625 0.109375 0  0.90625 0.109375 0  0.921875 0.109375 0  0.9375 0.109375 0  0.953125 0.109375 0  0.96875 0.109375 0  0.984375 0.109375 0  1 0.109375 0  0 0.125 0  0.015625 0.125 0  0.03125 0.125 0  0.046875 0.125 0  0.0625 0.125 0  0.078125 0.125 0  0.09375 0.125 0  0.109375 0.125 0  0.125 0.12
[...]
<PointData  Scalars="f_6"> 
<DataArray  type="Float64"  Name="f_6"  format="ascii">-2.0000000000000000e+00  -1.9531250000000000e+00  -1.9062500000000000e+00  -1.8593750000000000e+00  -1.8125000000000000e+00  -1.7656250000000000e+00  -1.7187500000000000e+00  -1.6718750000000000e+00  -1.6250000000000000e+00  -1.5781250000000000e+00  -1.5312500000000000e+00  -1.4843750000000000e+00  -1.4375000000000000e+00  -1.3906250000000000e+00  -1.3437500000000000e+00  -1.2968750000000000e+00  -1.2500000000000000e+00  -1.2031250000000000e+00  -1.1562500000000000e+00  -1.1093750000000000e+00  -1.0625000000000000e+00  -1.0156250000000000e+00  -9.6875000000000000e-01  -9.2187500000000000e-01  -8.7500000000000000e-01  -8.2812500000000000e-01  -7.8125000000000000e-01  -7.3437500000000000e-01  -6.8750000000000000e-01  -6.4062500000000000e-01  -5.9375000000000000e-01  -5.4687500000000000e-01  -5.0000000000000000e-01  -4.5312499999999994e-01  -4.0625000000000000e-01  -3.5937500000000000e-01  -3.1250000000000000e-01  -2.6562500000000000e-01  -2.1875000000000003e-01  -1.7187500000000000e-01  -1.2500000000000000e-01  -7.8125000000000014e-02  -3.1250000000000000e-02  1.5625000000000000e-02  6.2500000000000000e-02  1.0937500000000000e-01  1.5625000000000000e-01  2.0312500000000000e-01  2.5000000000000000e-01  2.9687500000000000e-01  3.4375000000000000e-01  3.9062500000000000e-01  4.3750000000000000e-01  4.8437500000000000e-01  5.3125000000000000e-01  5.7812500000000000e-01  6.2500000000000000e-01  6.7187500000000000e-01  7.1875000000000000e-01  7.6562500000000000e-01  8.1250000000000000e-01  8.5937500000000000e-01  9.0625000000000000e-01  9.5312500000000000e-01  1.0000000000000000e+00  -2.0000000000000000e+00  -1.9132632246532846e+00  -1.8332201280596077e+00  -1.7584436578614266e+00  -1.6880115472711998e+00  -1.6212537339179769e+00  -1.5576504021323807e+00  -1.4967826566616780e+00  -1.4383048211395124e+00  -1.3819270307235973e+00  -1.3274033723457459e+00  -1.2745233280174557e+00  -1.2231053443900841e+00  -1.1729918559070851e+00  -1.1240453484351491e+00  -1.0761451942054496e+00  -1.0291850740489641e+00  -9.8307085621511658e-01  -9.3771883616549490e-01  -8.9305426598704452e-01  -8.4901011970020424e-01  -8.0552605436177516e-01  -7.6254753824131438e-01  -7.2002512782716177e-01  -6.7791388631694549e-01  -6.3617294948645542e-01  -5.9476526379078321e-01  -5.5365755113874138e-01  -5.1282059667367541e-01  -4.7222998953910750e-01  -4.3186738176682760e-01  -3.9172193348944973e-01  -3.5179054554490274e-01  -3.1207418591757735e-01  -2.7257088307462529e-01  -2.3328471057906264e-01  -1.9427769413945281e-01  -1.5565750018897129e-01  -1.1735810213318153e-01  -7.9136812128914588e-02  -4.4580142763065767e-02  -1.1928388812919785e-02  2.1762685258441824e-02  5.7385224775928591e-02  9.6133314027663480e-02  1.3800942058442772e-01  1.8130744990692538e-01  2.2537292035421519e-01  2.6991139384735463e-01  3.1477010038593856e-01  3.5986008035850459e-01  4.0512473599308518e-01  4.5052555107781012e-01  4.9603491081905748e-01  5.4163217269138986e-01  5.8730136269584543e-01  6.3302974626509734e-01  6.7880689917172099e-01  7.2462407876319568e-01  7.7047378297542080e-01  8.1634943054816111e-01  8.6224512132846198e-01  9.0815545022251298e-01  9.5407535707231095e-01  1.0000000000000000e+00  -2.0000000000000000e+00  -1.8765326526757049e+00  -1.7678978922959818e+00  -1.6706846655066494e+00  -1.5825421238926212e+00  -1.5017710480078337e+00  -1.4270959710417364e+00  -1.3575314885120477e+00  -1.2922991441818314e+00  -1.2307730100574303e+00  -1.1724424948350218e+00  -1.1168860323722467e+00  -1.0637519400809701e+00  -1.0127441719307750e+00  -9.6361151173147042e-01  -9.1613924404015923e-01  -8.7014264647070105e-01  -8.2546184489235641e-01  -7.8195770452601010e-01  -7.3950851996118583e-01  -6.9800733056118502e-01  -6.5735973403748249e-01  -6.1748210640341894e-01  -5.7830016540573892e-01  -5.3974784021001043e-01  -5.0176643601003335e-01  -4.6430411398753385e-01  -4.2731575582512121e-01  -3.9076336575345194e-01  -3.5461729380361712e-01  -3.1885868878388607e-01  -2.8348341264900107e-01  -2.4850618045476050e-01  -2.1395874702303139e-01  -1.7986971335062582e-01  -1.4625056819017807e-01  -1.1325654527650482e-01  -8.1402509752238367e-02  -5.0936879432437382e-02  -2.3025626438382168e-02  3.0239283315810360e-03  2.9785466223939454e-02  5.8754552102383305e-02  9.0820204080926559e-02  1.2663861075029756e-01  1.6522191840312192e-01  2.0559745868905854e-01  2.4714783766258075e-01  2.8950255464926494e-01  3.3243392733789529e-01  3.7579548505499455e-01  4.1948831253602609e-01  4.6344255749909752e-01  5.0760691950703085e-01  5.5194241725065651e-01  5.9641853182689453e-01  6.4101072319282315e-01  6.8569877165859083e-01  7.3046563290564137e-01  7.7529662259032617e-01  8.2017881788876157e-01  8.6510060454317395e-01  9.1005132248927922e-01  9.5502097806673059e-01  1.0000000000000000e+00  -2.0000000000000000e+00  -1.8423411838654669e+00  -1.7089475648702757e+00  -1.5935189161671273e+00  -1.4918372801330715e+00  -1.4009564772912666e+00  -1.3187440655797216e+00  -1.2436104178020144e+00  -1.1743412693746413e+00  -1.1099899879944541e+00  -1.0498057755608388e+00  -9.9318433055540289e-01  -9.3963303732458470e-01  -8.8874583801670182e-01  -8.4018473113617176e-01  -7.9366591193948854e-01  -7.4894923206557729e-01  -7.0583007686450439e-01  -6.6413303367147281e-01  -6.2370690802869611e-01  -5.8442077084794597e-01  -5.4616080844429293e-01  -5.0882781263409194e-01  -4.7233519858655443e-01  -4.3660747983152676e-01  -4.0157916700060498e-01  -3.6719409466562958e-01  -3.3340523236958569e-01  -3.0017513777526827e-01  -2.6747743917215050e-01  -2.3530021468283793e-01  -2.0365296921557066e-01  -1.7257962736906468e-01  -1.4217513423765610e-01  -1.1256116610055272e-01  -8.3734847975204585e-02  -5.5717203093870793e-02  -3.0677493596678339e-02  -7.7922072344731377e-03  1.4426311279655544e-02  3.6869636547705413e-02  6.1500646159469499e-02  8.9508941585008897e-02  1.2050242869509672e-01  1.5437900648947836e-01  1.9064218358870369e-01  2.2871262878360613e-01  2.6811841695778443e-01  3.0851705974922911e-01  3.4966756926138315e-01  3.9139961998755246e-01  4.3359047159692721e-01  4.7614944687552324e-01  5.1900779245931172e-01  5.6211204497731082e-01  6.0541962416825312e-01  6.4889584302071002e-01  6.9251183136417815e-01  7.3624305861045269e-01  7.8006825659148116e-01  8.2396861387338516e-01  8.6792715646619345e-01  9.1192825712469960e-01  9.5595723270533195e-01  1.0000000000000000e+00  -2.0000000000000000e+00  -1.8103785332261784e+00  -1.6554259984520636e+00  -1.5250728009364489e+00  -1.4128988530736601e+00  -1.3145970294245337e+00  -1.2271565811385279e+00  -1.1484008775291639e+00  -1.0767117300833824e+00  -1.0108575856639528e+00  -9.4988233977756376e-01  -8.9303100352712517e-01  -8.3969858850514467e-01  -7.8939408409735901e-01  -7.4171452023248663e-01  -6.9632593722587555e-01  -6.5294919118458306e-01  -6.1134921283715438e-01  -5.7132677840797508e-01  -5.3271213991693656e-01  -4.9536005613254724e-01  -4.5914589919683779e-01  -4.2396260781569489e-01  -3.8971833051250171e-01  -3.5633466138607095e-01  -3.2374542119032962e-01  -2.9189597948841289e-01  -2.6074315319412172e-01  -2.3025578538415939e-01  -2.0041632014031704e-01  -1.7122432787047717e-01  -1.4270473633233985e-01  -1.1492906035490576e-01  -8.8082386339752169e-02  -6.2591944684493986e-02  -3.8559294117953453e-02  -1.6776794461979293e-02  3.0989948529748222e-03  2.2726484721464588e-02  4.3106888726282690e-02  6.5129076170890809e-02  8.9838540281224247e-02  1.1727813938308604e-01  1.4730156262497310e-01  1.7973280292381563e-01  2.1425518067860833e-01  2.5049245589887809e-01  2.8809614163572161e-01  3.2677969812848379e-01  3.6631966997085569e-01  4.0654495403690494e-01  4.4732450698860693e-01  4.8855696594675641e-01  5.3016275847738181e-01  5.7207834603102159e-01  6.1425207684809735e-01  6.5664119335758542e-01  6.9920965216695896e-01  7.4192651358050954e-01  7.8476473129176094e-01  8.2770022454710412e-01  8.7071115032351520e-01  9.1377731683799390e-01  9.5687969562989716e-01  1.0000000000000000e+00  -2.0000000000000000e+00  -1.7804474528244241e+00  -1.6066280935097197e+00  -1.4639435067982056e+00  -1.3435453016888483e+00  -1.2397253806559991e+00  -1.1486180961235504e+00  -1.0675015571354389e+00  -9.9439713479718572e-01  -9.2782786151390473e-01  -8.6666634739789350e-01  -8.1003553325035371e-01  -7.5724189154158683e-01  -7.0772924901521517e-01  -6.6104611355675813e-01  -6.1682208187633247e-01  -5.7475049994490524e-01  -5.3457552247855966e-01  -4.9608232958262288e-01  -4.5908965280973391e-01  -4.2344402321214847e-01  -3.8901533073635147e-01  -3.5569340909382452e-01  -3.2338545437816824e-01  -2.9201416457328322e-01  -2.6151656016362768e-01  -2.3184351202011227e-01  -2.0296004679934534e-01  -1.7484652107403925e-01  -1.4750085826298528e-01  -1.2094252353889598e-01  -9.5220170912202584e-02  -7.0428967211130886e-02  -4.6697999164691063e-02  -2.5726919404762221e-02  -6.8054376697265573e-03  1.1134842348370718e-02  2.8775128230160565e-02  4.7486676350634388e-02  6.8146965951704233e-02  9.0701239128350888e-02  1.1544629941145065e-01  1.4246351304113797e-01  1.7169287949789397e-01  2.0299546190220261e-01  2.3615328030303612e-01  2.7090587249757642e-01  3.0699399555773965e-01  3.4418592115812874e-01  3.8228645845665088e-01  4.2113601920060473e-01  4.6060563637383878e-01  5.0059115144551369e-01  5.4100792947243770e-01  5.8178650382129626e-01  6.2286914383552816e-01  6.6420720139457567e-01  7.0575907036556296e-01  7.4748861225286567e-01  7.8936393044794906e-01  8.3135640269975519e-01  8.7343990344276934e-01  9.1559016427386419e-01  9.5778423297626336e-01  1.0000000000000000e+00  -2.0000000000000000e+00  -1.7524030528447450e+00  -1.5620012376409365e+00  -1.4090509641782856e+00  -1.2821443306863374e+00  -1.1741826120431027e+00  -1.0804922018314069e+00  -9.9785655474139456e-01  -9.2398128754586029e-01  -8.5718092874211804e-01  -7.9618652159143910e-01  -7.4002265911080034e-01  -6.8792619876993655e-01  -6.3929095275418968e-01  -5.9362910084296161e-01  -5.5054368042692925e-01  -5.0970860299127774e-01  -4.7085390391883236e-01  -4.3375471017700168e-01  -3.9822290472527005e-01  -3.6410078893453862e-01  -3.3125626065496377e-01  -2.9957917657697203e-01  -2.6897868160479027e-01  -2.3938138954112972e-01  -2.1073041226986594e-01  -1.8298537251625319e-01  -1.5612367529207458e-01  -1.3014340871794636e-01  -1.0506848378955917e-01  -8.0958076801830106e-02  -5.7927433153814899e-02  -3.6199177283729872e-02  -1.6898785450877387e-02  2.2525592133457802e-04  1.6715303951952712e-02  3.3446489505114224e-02  5.1043397219065686e-02  7.0298126499208163e-02  9.1293059601548959e-02  1.1408261497935787e-01  1.3878190519508962e-01  1.6543673387212110e-01  1.9401098042326217e-01  2.2440288488406471e-01  2.5645660613375726e-01  2.8998375823065176e-01  3.2478804693953145e-01  3.6068353248964080e-01  3.9750422349701470e-01  4.3510702793502420e-01  4.7337086786062976e-01  5.1219407398902161e-01  5.5149130414555947e-01  5.9119059594619738e-01  6.3123079327814358e-01  6.7155939801962694e-01  7.1213081564785108e-01  7.5290493461744057e-01  7.9384597554741476e-01  8.3492155236119769e-01  8.7610189647394232e-01  9.1735920383843039e-01  9.5866707200129209e-01  1.0000000000000000e+00  -2.0000000000000000e+00  -1.7261280580203444e+00  -1.5210970672263091e+00  -1.3595435690074580e+00  -1.2274448327082006e+00  -1.1163544738235620e+00  -1.0208488689475992e+00  -9.3726853001835009e-01  -8.6304492402060218e-01  -7.9631640147162808e-01  -7.3569729729273614e-01  -6.8013297670028239e-01  -6.2880546422580863e-01  -5.8107007271667488e-01  -5.3641170377267311e-01  -4.9441401654441891e-01  -4.5473724537979909e-01  -4.1710197511618008e-01  -3.8127711612207460e-01  -3.4707090810253177e-01  -3.1432416135109403e-01  -2.8290519710907247e-01  -2.5270612384812757e-01  -2.2364021771271181e-01  -1.9564029815114761e-01  -1.6865815863308406e-01  -1.4266540771707167e-01  -1.1765654516564378e-01  -9.3655654804464958e-02  -7.0729305885499055e-02  -4.9012132028599796e-02  -2.8813892511031915e-02  -1.0839899115790497e-02  5.2363913587225967e-03  2.0508923766754176e-02  3.6305836171510626e-02  5.3377998405165238e-02  7.1653844641779818e-02  9.1369372825583620e-02  1.1264453097592565e-01  1.3555425599244200e-01  1.6016197251742886e-01  1.8649053682899461e-01  2.1451142343896890e-01  2.4414849107703679e-01  2.7528650111727648e-01  3.0778450735174179e-01  3.4149090148009387e-01  3.7625593836388821e-01  4.1193987510674307e-01  4.4841700118184769e-01  4.8557673314463462e-01  5.2332297250438364e-01  5.6157261717458118e-01  6.0025378253979034e-01  6.3930403531122293e-01  6.7866878175793743e-01  7.1829985958877385e-01  7.5815433502163088e-01  7.9819348476307184e-01  8.3838193472367850e-01  8.7868692625337197e-01  9.1907768260462275e-01  9.5952485119047448e-01  1.0000000000000000e+00  -2.0000000000000000e+00  -1.7015216015822345e+00  -1.4835427194841755e+00  -1.3147365086893736e+00  -1.1784678739868257e+00  -1.0650056313159042e+00  -9.6823778210255684e-01  -8.8411105904085074e-01  -8.0981983289310266e-01  -7.4335377997538821e-01  -6.8323094414445040e-01  -6.2833271923357170e-01  -5.7779780465536168e-01  -5.3095178732522019e-01  -4.8725905531085728e-01  -4.4628916715701422e-01  -4.0769284968233671e-01  -3.7118457831080109e-01  -3.3652977052579480e-01  -3.0353529473312735e-01  -2.7204242974106441e-01  -2.4192169929507501e-01  -2.1306920767172843e-01  -1.8540425221707035e-01  -1.5886812586813201e-01  -1.3342424385302712e-01  -1.0906029705973576e-01  -8.5794525792842607e-02  -6.3690896590133522e-02  -4.2890398487219483e-02  -2.3775584664108805e-02  -6.7764462193712436e-03  8.5727440738373340e-03  2.3252250069181156e-02  3.8344492976089425e-02  5.4621118562170390e-02  7.2105823302256303e-02  9.0824610117304749e-02  1.1088098918542083e-01  1.3236143548412799e-01  1.5532790549705575e-01  1.7982119205318928e-01  2.0585201748745960e-01  2.3339568542658223e-01  2.6239315486783704e-01  2.9275639990657015e-01  3.2437686857894521e-01  3.5713511326521413e-01  3.9090944437907527e-01  4.2558233738422191e-01  4.6104436854098896e-01  4.9719609103167728e-01  5.3394846570929710e-01  5.7122240950859160e-01  6.0894788172715997e-01  6.4706278366902037e-01  6.8551183411212580e-01  7.2424550592767623e-01  7.6321906111723725e-01  8.0239169375956343e-01  8.4172577551707306e-01  8.8118619121124431e-01  9.2073974913621437e-01  9.6035465015598365e-01  1.0000000000000000e+00  -2.0000000000000000e+00  -1.6784937197118406e+00  -1.4490225915596202e+00  -1.2740701021561343e+00  -1.1344338379605610e+00  -1.0191717604612762e+00  -9.2154468504126086e-01  -8.3715063636331188e-01  -7.6297917734139076e-01  -6.9689440733927643e-01  -6.3733473482186420e-01  -5.8312973304557636e-01  -5.3338375545797168e-01  -4.8739938682606221e-01  -4.4462560459530925e-01  -4.0462179359555611e-01  -3.6703224103681048e-01  -3.3156775284980372e-01  -2.9799223934945651e-01  -2.6611286725659200e-01  -2.3577285885117527e-01  -2.0684634859806736e-01  -1.7923494932800538e-01  -1.5286587176443636e-01  -1.2769160729584728e-01  -1.0369142575384845e-01  -8.0875857664244530e-02  -5.9299339690855449e-02  -3.9093970026765824e-02  -2.0678629019290608e-02  -4.3581902322050725e-03  1.0447245632149486e-02  2.4705741568999191e-02  3.9349145320221379e-02  5.4995679506251977e-02  7.1728321798825240e-02  8.9599566124384813e-02  1.0865778333976206e-01  1.2896853831466698e-01  1.5059231627810968e-01  1.7357473845846369e-01  1.9794287271081290e-01  2.2370065564107230e-01  2.5082614591206337e-01  2.7927204306115905e-01  3.0896907506222188e-01  3.3983145379225482e-01  3.7176323862274196e-01  4.0466438850297670e-01  4.3843566151008023e-01  4.7298204456620896e-01  5.0821479673178860e-01  5.4405238979253567e-01  5.8042067342332837e-01  6.1725255119123723e-01  6.5448738352557334e-01  6.9207026509386915e-01  7.2995126889256823e-01  7.6808470976007859e-01  8.0642845364087146e-01  8.4494328237380578e-01  8.8359231393831750e-01  9.2234047257300666e-01  9.6115400029724618e-01  1.0000000000000000e+00  -2.0000000000000000e+00  -1.6569624707821526e+00  -1.4172660726655406e+00  -1.2370807636802192e+00  -1.0947123725305528e+00  -9.7808711955138739e-01  -8.7989711562943662e-01  -7.9543218582310926e-01  -7.2150491944056905e-01  -6.5587313615203868e-01  -5.9690918121839320e-01  -5.4340050492393555e-01  -4.9442415442461840e-01  -4.4926490253112333e-01  -4.0736020241760057e-01  -3.6826222296313538e-01  -3.3161110503874269e-01  -2.9711580556611417e-01  -2.6454022109503017e-01  -2.3369310209105743e-01  -2.0442080186680822e-01  -1.7660228158597943e-01  -1.5014610595739794e-01  -1.2498948244588869e-01  -1.0109975090261354e-01  -7.8479117726331385e-02  -5.7174698623668696e-02  -3.7304284276149034e-02  -1.9258651455701315e-02  -3.3482253014518013e-03  1.1063333988452875e-02  2.4981431026212562e-02  3.9275459131401277e-02  5.4442910136453193e-02  7.0560757929871890e-02  8.7696923002493821e-02  1.0590633605669555e-01  1.2523841880269185e-01  1.4574306445537530e-01  1.6746455285518000e-01  1.9043585934787635e-01  2.1467490469052647e-01  2.4018158645395327e-01  2.6693619951943964e-01  2.9489979640251401e-01  3.2401640348890370e-01  3.5421663290511024e-01  3.8542199893052193e-01  4.1754920950000951e-01  4.5051387558691397e-01  4.8423335148197810e-01  5.1862866153673226e-01  5.5362562330572918e-01  5.8915534320094931e-01  6.2515426608888691e-01  6.6156393414816606e-01  6.9833057384521013e-01  7.3540459478864884e-01  7.7274005538963753e-01  8.1029412867003781e-01  8.4802658639896089e-01  8.8589930959521301e-01  9.2387582692024894e-01  9.6192087845999452e-01  1.0000000000000000e+00  -2.0000000000000000e+00  -1.6368523454817310e+00  -1.3880388730456181e+00  -1.2033801853337545e+00  -1.0587871337111121e+00  -9.4113460868999588e-01  -8.4260067377211534e-01  -7.5820296218727901e-01  -6.8460096787680302e-01  -6.1946233856130462e-01  -5.6110443664028287e-01  -5.0828036033108648e-01  -4.6004540183283815e-01  -4.1567055853276386e-01  -3.7458474691970123e-01  -3.3633517429425097e-01  -3.0055957723238980e-01  -2.6696645522369911e-01  -2.3532085968349242e-01  -2.0543418216634121e-01  -1.7715696454482782e-01  -1.5037418324932320e-01  -1.2500287949200872e-01  -1.0099262093219624e-01  -7.8330423478610994e-02  -5.7053796660484372e-02  -3.7277815514570101e-02  -1.9325503296063803e-02  -3.5823924222034564e-03  1.0582545265283693e-02  2.4217657408015115e-02  3.8202532617715716e-02  5.2971753793940167e-02  6.8586278164318268e-02  8.5107519074288554e-02  1.0259227622458257e-01  1.2109043629721174e-01  1.4064649135893442e-01  1.6130074784896239e-01  1.8308697133935875e-01  2.0602924138733525e-01  2.3013930024946339e-01  2.5541458596477462e-01  2.8183726930922792e-01  3.0937453954055366e-01  3.3798010958576885e-01  3.6759667540876034e-01  3.9815891469422637e-01  4.2959657497962550e-01  4.6183727985558820e-01  4.9480882423805717e-01  5.2844087462743317e-01  5.6266609869269946e-01  5.9742080998585312e-01  6.3264523581519516e-01  6.6828351313299339e-01  7.0428350135015638e-01  7.4059648102717979e-01  7.7717678833978499e-01  8.1398141925068079e-01  8.5096962495678696e-01  8.8810251112332406e-01  9.2534264705278169e-01  9.6265368662248296e-01  1.0000000000000000e+00  -2.0000000000000000e+00  -1.6180933414280145e+00  -1.3611366411731911e+00  -1.1726400403352650e+00  -1.0262303904655496e+00  -9.0781050754249926e-01  -8.0909479784626526e-01  -7.2486052032951476e-01  -6.5163452796253130e-01  -5.8700776109438402e-01  -5.2925167631856895e-01  -4.7709127740247587e-01  -4.2956450609945424e-01  -3.8593174669686375e-01  -3.4561569606405962e-01  -3.0816033787689356e-01  -2.7320234961446133e-01  -2.4045086595155460e-01  -2.0967305240382098e-01  -1.8068388820422179e-01  -1.5333918231687604e-01  -1.2753132410209317e-01  -1.0318778981127717e-01  -8.0273443926268603e-02  -5.8800739260044331e-02  -3.8862665992462887e-02  -2.0749101483965179e-02  -4.9586368798434114e-03  9.1050726077362022e-03  2.2522582554917316e-02  3.6221670309661724e-02 