<?xml version="1.0"?>
<VTKFile type="UnstructuredGrid"  version="0.1"  >
<UnstructuredGrid>
<Piece  NumberOfPoints="4225" NumberOfCells="8192">
<Points>
<DataArray  type="Float64"  NumberOfComponents="3"  format="ascii">0 0 0  0.015625 0 0  0.03125 0 0  0.046875 0 0  0.0625 0 0  0.078125 0 0  0.09375 0 0  0.109375 0 0  0.125 0 0  0.140625 0 0  0.15625 0 0  0.171875 0 0  0.1875 0 0  0.203125 0 0  0.21875 0 0  0.234375 0 0  0.25 0 0  0.265625 0 0  0.28125 0 0  0.296875 0 0  0.3125 0 0  0.328125 0 0  0.34375 0 0  0.359375 0 0  0.375 0 0  0.390625 0 0  0.40625 0 0  0.421875 0 0  0.4375 0 0  0.453125 0 0  0.46875 0 0  0.484375 0 0  0.5 0 0  0.515625 0 0  0.53125 0 0  0.546875 0 0  0.5625 0 0  0.578125 0 0  0.59375 0 0  0.609375 0 0  0.625 0 0  0.640625 0 0  0.65625 0 0  0.671875 0 0  0.6875 0 0  0.703125 0 0  0.71875 0 0  0.734375 0 0  0.75 0 0  0.765625 0 0  0.78125 0 0  0.796875 0 0  0.8125 0 0  0.828125 0 0  0.84375 0 0  0.859375 0 0  0.875 0 0  0.890625 0 0  0.90625 0 0  0.921875 0 0  0.9375 0 0  0.953125 0 0  0.96875 0 0  0.984375 0 0  1 0 0  0 0.015625 0  0.015625 0.015625 0  0.03125 0.015625 0  0.046875 0.015625 0  0.0625 0.015625 0  0.078125 0.015625 0  0.09375 0.015625 0  0.109375 0.015625 0  0.125 0.015625 0  0.140625 0.015625 0  0.15625 0.015625 0  0.171875 0.015625 0  0.1875 0.015625 0  0.203125 0.015625 0  0.21875 0.015625 0  0.234375 0.015625 0  0.25 0.015625 0  0.265625 0.015625 0  0.28125 0.015625 0  0.296875 0.015625 0  0.3125 0.015625 0  0.328125 0.015625 0  0.34375 0.015625 0  0.359375 0.015625 0  0.375 0.015625 0  0.390625 0.015625 0  0.40625 0.015625 0  0.421875 0.015625 0  0.4375 0.015625 0  0.453125 0.015625 0  0.46875 0.015625 0  0.484375 0.015625 0  0.5 0.015625 0  0.515625 0.015625 0  0.53125 0.015625 0  0.546875 0.015625 0  0.5625 0.015625 0  0.578125 0.015625 0  0.59375 0.015625 0  0.609375 0.015625 0  0.625 0.015625 0  0.640625 0.015625 0  0.65625 0.015625 0  0.671875 0.015625 0  0.6875 0.015625 0  0.703125 0.015625 0  0.71875 0.015625 0  0.734375 0.015625 0  0.75 0.015625 0  0.765625 0.015625 0  0.78125 0.015625 0  0.796875 0.015625 0  0.8125 0.015625 0  0.828125 0.015625 0  0.84375 0.015625 0  0.859375 0.015625 0  0.875 0.015625 0  0.890625 0.015625 0  0.90625 0.015625 0  0.921875 0.015625 0  0.9375 0.015625 0  0.953125 0.015625 0  0.96875 0.015625 0  0.984375 0.015625 0  1 0.015625 0  0 0.03125 0  0.015625 0.03125 0  0.03125 0.03125 0  0.046875 0.03125 0  0.0625 0.03125 0  0.078125 0.03125 0  0.09375 0.03125 0  0.109375 0.03125 0  0.125 0.03125 0  0.140625 0.03125 0  0.15625 0.03125 0  0.171875 0.03125 0  0.1875 0.03125 0  0.203125 0.03125 0  0.21875 0.03125 0  0.234375 0.03125 0  0.25 0.03125 0  0.265625 0.03125 0  0.28125 0.03125 0  0.296875 0.03125 0  0.3125 0.03125 0  0.328125 0.03125 0  0.34375 0.03125 0  0.359375 0.03125 0  0.375 0.03125 0  0.390625 0.03125 0  0.40625 0.03125 0  0.421875 0.03125 0  0.4375 0.03125 0  0.453125 0.03125 0  0.46875 0.03125 0  0.484375 0.03125 0  0.5 0.03125 0  0.515625 0.03125 0  0.53125 0.03125 0  0.546875 0.03125 0  0.5625 0.03125 0  0.578125 0.03125 0  0.59375 0.03125 0  0.609375 0.03125 0  0.625 0.03125 0  0.640625 0.03125 0  0.65625 0.03125 0  0.671875 0.03125 0  0.6875 0.03125 0  0.703125 0.03125 0  0.71875 0.03125 0  0.734375 0.03125 0  0.75 0.03125 0  0.765625 0.03125 0  0.78125 0.03125 0  0.796875 0.03125 0  0.8125 0.03125 0  0.828125 0.03125 0  0.84375 0.03125 0  0.859375 0.03125 0  0.875 0.03125 0  0.890625 0.03125 0  0.90625 0.03125 0  0.921875 0.03125 0  0.9375 0.03125 0  0.953125 0.03125 0  0.96875 0.03125 0  0.984375 0.03125 0  1 0.03125 0  0 0.046875 0  0.015625 0.046875 0  0.03125 0.046875 0  0.046875 0.046875 0  0.0625 0.046875 0  0.078125 0.046875 0  0.09375 0.046875 0  0.109375 0.046875 0  0.125 0.046875 0  0.140625 0.046875 0  0.15625 0.046875 0  0.171875 0.046875 0  0.1875 0.046875 0  0.203125 0.046875 0  0.21875 0.046875 0  0.234375 0.046875 0  0.25 0.046875 0  0.265625 0.046875 0  0.28125 0.046875 0  0.296875 0.046875 0  0.3125 0.046875 0  0.328125 0.046875 0  0.34375 0.046875 0  0.359375 0.046875 0  0.375 0.046875 0  0.390625 0.046875 0  0.40625 0.046875 0  0.421875 0.046875 0  0.4375 0.046875 0  0.453125 0.046875 0  0.46875 0.046875 0  0.484375 0.046875 0  0.5 0.046875 0  0.515625 0.046875 0  0.53125 0.046875 0  0.546875 0.046875 0  0.5625 0.046875 0  0.578125 0.046875 0  0.59375 0.046875 0  0.609375 0.046875 0  0.625 0.046875 0  0.640625 0.046875 0  0.65625 0.046875 0  0.671875 0.046875 0  0.6875 0.046875 0  0.703125 0.046875 0  0.71875 0.046875 0  0.734375 0.046875 0  0.75 0.046875 0  0.765625 0.046875 0  0.78125 0.046875 0  0.796875 0.046875 0  0.8125 0.046875 0  0.828125 0.046875 0  0.84375 0.046875 0  0.859375 0.046875 0  0.875 0.046875 0  0.890625 0.046875 0  0.90625 0.046875 0  0.921875 0.046875 0  0.9375 0.046875 0  0.953125 0.046875 0  0.96875 0.046875 0  0.984375 0.046875 0  1 0.046875 0  0 0.0625 0  0.015625 0.0625 0  0.03125 0.0625 0  0.046875 0.0625 0  0.0625 0.0625 0  0.078125 0.0625 0  0.09375 0.0625 0  0.109375 0.0625 0  0.125 0.0625 0  0.140625 0.0625 0  0.15625 0.0625 0  0.171875 0.0625 0  0.1875 0.0625 0  0.203125 0.0625 0  0.21875 0.0625 0  0.234375 0.0625 0  0.25 0.0625 0  0.265625 0.0625 0  0.28125 0.0625 0  0.296875 0.0625 0  0.3125 0.0625 0  0.328125 0.0625 0  0.34375 0.0625 0  0.359375 0.0625 0  0.375 0.0625 0  0.390625 0.0625 0  0.40625 0.0625 0  0.421875 0.0625 0  0.4375 0.0625 0  0.453125 0.0625 0  0.46875 0.0625 0  0.484375 0.0625 0  0.5 0.0625 0  0.515625 0.0625 0  0.53125 0.0625 0  0.546875 0.0625 0  0.5625 0.0625 0  0.578125 0.0625 0  0.59375 0.0625 0  0.609375 0.0625 0  0.625 0.0625 0  0.640625 0.0625 0  0.65625 0.0625 0  0.671875 0.0625 0  0.6875 0.0625 0  0.703125 0.0625 0  0.71875 0.0625 0  0.734375 0.0625 0  0.75 0.0625 0  0.765625 0.0625 0  0.78125 0.0625 0  0.796875 0.0625 0  0.8125 0.0625 0  0.828125 0.0625 0  0.84375 0.0625 0  0.859375 0.0625 0  0.875 0.0625 0  0.890625 0.0625 0  0.90625 0.0625 0  0.921875 0.0625 0  0.9375 0.0625 0  0.953125 0.0625 0  0.96875 0.0625 0  0.984375 0.0625 0  1 0.0625 0  0 0.078125 0  0.015625 0.078125 0  0.03125 0.078125 0  0.046875 0.078125 0  0.0625 0.078125 0  0.078125 0.078125 0  0.09375 0.078125 0  0.109375 0.078125 0  0.125 0.078125 0  0.140625 0.078125 0  0.15625 0.078125 0  0.171875 0.078125 0  0.1875 0.078125 0  0.203125 0.078125 0  0.21875 0.078125 0  0.234375 0.078125 0  0.25 0.078125 0  0.265625 0.078125 0  0.28125 0.078125 0  0.296875 0.078125 0  0.3125 0.078125 0  0.328125 0.078125 0  0.34375 0.078125 0  0.359375 0.078125 0  0.375 0.078125 0  0.390625 0.078125 0  0.40625 0.078125 0  0.421875 0.078125 0  0.4375 0.078125 0  0.453125 0.078125 0  0.46875 0.078125 0  0.484375 0.078125 0  0.5 0.078125 0  0.515625 0.078125 0  0.53125 0.078125 0  0.546875 0.078125 0  0.5625 0.078125 0  0.578125 0.078125 0  0.59375 0.078125 0  0.609375 0.078125 0  0.625 0.078125 0  0.640625 0.078125 0  0.65625 0.078125 0  0.671875 0.078125 0  0.6875 0.078125 0  0.703125 0.078125 0  0.71875 0.078125 0  0.734375 0.078125 0  0.75 0.078125 0  0.765625 0.078125 0  0.78125 0.078125 0  0.796875 0.078125 0  0.8125 0.078125 0  0.828125 0.078125 0  0.84375 0.078125 0  0.859375 0.078125 0  0.875 0.078125 0  0.890625 0.078125 0  0.90625 0.078125 0  0.921875 0.078125 0  0.9375 0.078125 0  0.953125 0.078125 0  0.96875 0.078125 0  0.984375 0.078125 0  1 0.078125 0  0 0.09375 0  0.015625 0.09375 0  0.03125 0.09375 0  0.046875 0.09375 0  0.0625 0.09375 0  0.078125 0.09375 0  0.09375 0.09375 0  0.109375 0.09375 0  0.125 0.09375 0  0.140625 0.09375 0  0.15625 0.09375 0  0.171875 0.09375 0  0.1875 0.09375 0  0.203125 0.09375 0  0.21875 0.09375 0  0.234375 0.09375 0  0.25 0.09375 0  0.265625 0.09375 0  0.28125 0.09375 0  0.296875 0.09375 0  0.3125 0.09375 0  0.328125 0.09375 0  0.34375 0.09375 0  0.359375 0.09375 0  0.375 0.09375 0  0.390625 0.09375 0  0.40625 0.09375 0  0.421875 0.09375 0  0.4375 0.09375 0  0.453125 0.09375 0  0.46875 0.09375 0  0.484375 0.09375 0  0.5 0.09375 0  0.515625 0.09375 0  0.53125 0.09375 0  0.546875 0.09375 0  0.5625 0.09375 0  0.578125 0.09375 0  0.59375 0.09375 0  0.609375 0.09375 0  0.625 0.09375 0  0.640625 0.09375 0  0.65625 0.09375 0  0.671875 0.09375 0  0.6875 0.09375 0  0.703125 0.09375 0  0.71875 0.09375 0  0.734375 0.09375 0  0.75 0.09375 0  0.765625 0.09375 0  0.78125 0.09375 0  0.796875 0.09375 0  0.8125 0.09375 0  0.828125 0.09375 0  0.84375 0.09375 0  0.859375 0.09375 0  0.875 0.09375 0  0.890625 0.09375 0  0.90625 0.09375 0  0.921875 0.09375 0  0.9375 0.09375 0  0.953125 0.09375 0  0.96875 0.09375 0  0.984375 0.09375 0  1 0.09375 0  0 0.109375 0  0.015625 0.109375 0  0.03125 0.109375 0  0.046875 0.109375 0  0.0625 0.109375 0  0.078125 0.109375 0  0.09375 0.109375 0  0.109375 0.109375 0  0.125 0.109375 0  0.140625 0.109375 0  0.15625 0.109375 0  0.171875 0.109375 0  0.1875 0.109375 0  0.203125 0.109375 0  0.21875 0.109375 0  0.234375 0.109375 0  0.25 0.109375 0  0.265625 0.109375 0  0.28125 0.109375 0  0.296875 0.109375 0  0.3125 0.109375 0  0.328125 0.109375 0  0.34375 0.109375 0  0.359375 0.109375 0  0.375 0.109375 0  0.390625 0.109375 0  0.40625 0.109375 0  0.421875 0.109375 0  0.4375 0.109375 0  0.453125 0.109375 0  0.46875 0.109375 0  0.484375 0.109375 0  0.5 0.109375 0  0.515625 0.109375 0  0.53125 0.109375 0  0.546875 0.109375 0  0.5625 0.109375 0  0.578125 0.109375 0  0.59375 0.109375 0  0.609375 0.109375 0  0.625 0.109375 0  0.640625 0.109375 0  0.65625 0.109375 0  0.671875 0.109375 0  0.6875 0.109375 0  0.703125 0.109375 0  0.71875 0.109375 0  0.734375 0.109375 0  0.75 0.109375 0  0.765625 0.109375 0  0.78125 0.109375 0  0.796875 0.109375 0  0.8125 0.109375 0  0.828125 0.109375 0  0.84375 0.109375 0  0.859375 0.109375 0  0.875 0.109375 0  0.890625 0.109375 0  0.90625 0.109375 0  0.921875 0.109375 0  0.9375 0.109375 0  0.953125 0.109375 0  0.96875 0.109375 0  0.984375 0.109375 0  1 0.109375 0  0 0.125 0  0.015625 0.125 0  0.03125 0.125 0  0.046875 0.125 0  0.0625 0.125 0  0.078125 0.125 0  0.09375 0.125 0  0.109375 0.125 0  0.125 0.12
[...]
<PointData  Scalars="f_6"> 
<DataArray  type="Float64"  Name="f_6"  format="ascii">-2.0000000000000000e+00  -1.9531250000000000e+00  -1.9062500000000000e+00  -1.8593750000000000e+00  -1.8125000000000000e+00  -1.7656250000000000e+00  -1.7187500000000000e+00  -1.6718750000000000e+00  -1.6250000000000000e+00  -1.5781250000000000e+00  -1.5312500000000000e+00  -1.4843750000000000e+00  -1.4375000000000000e+00  -1.3906250000000000e+00  -1.3437500000000000e+00  -1.2968750000000000e+00  -1.2500000000000000e+00  -1.2031250000000000e+00  -1.1562500000000000e+00  -1.1093750000000000e+00  -1.0625000000000000e+00  -1.0156250000000000e+00  -9.6874999999999989e-01  -9.2187500000000000e-01  -8.7500000000000000e-01  -8.2812500000000000e-01  -7.8125000000000000e-01  -7.3437500000000000e-01  -6.8750000000000000e-01  -6.4062500000000000e-01  -5.9375000000000000e-01  -5.4687500000000000e-01  -5.0000000000000000e-01  -4.5312499999999994e-01  -4.0625000000000000e-01  -3.5937500000000000e-01  -3.1250000000000000e-01  -2.6562500000000000e-01  -2.1875000000000000e-01  -1.7187500000000000e-01  -1.2499999999999999e-01  -7.8125000000000000e-02  -3.1250000000000000e-02  1.5625000000000000e-02  6.2500000000000000e-02  1.0937500000000000e-01  1.5625000000000000e-01  2.0312500000000000e-01  2.5000000000000000e-01  2.9687500000000000e-01  3.4375000000000000e-01  3.9062500000000000e-01  4.3750000000000000e-01  4.8437500000000000e-01  5.3125000000000000e-01  5.7812500000000000e-01  6.2500000000000000e-01  6.7187500000000000e-01  7.1875000000000000e-01  7.6562500000000000e-01  8.1250000000000000e-01  8.5937500000000000e-01  9.0625000000000000e-01  9.5312500000000000e-01  1.0000000000000000e+00  -2.0000000000000000e+00  -1.9132822767140876e+00  -1.8332524135272830e+00  -1.7584840550015850e+00  -1.6880555964641342e+00  -1.6212976106157864e+00  -1.5576908876029201e+00  -1.4968171049031336e+00  -1.4383311222973976e+00  -1.3819435718692965e+00  -1.3274089965894962e+00  -1.2745172928793660e+00  -1.2230872802334742e+00  -1.1729617250967170e+00  -1.1240034057449728e+00  -1.0760919488789742e+00  -1.0291212538142909e+00  -9.8299737347453242e-01  -9.3763675651158118e-01  -8.9296477913874273e-01  -8.4891451290266084e-01  -8.0542568826164385e-01  -7.6244382525015186e-01  -7.1991951301811263e-01  -6.7780783088252949e-01  -6.3606791646960636e-01  -5.9466270476475436e-01  -5.5355889042145245e-01  -5.1272720688693041e-01  -4.7214315053041955e-01  -4.3178821704671105e-01  -3.9165132789930351e-01  -3.5172906844838225e-01  -3.1202207936836857e-01  -2.7252820402239963e-01  -2.3325147463428503e-01  -1.9425336806778906e-01  -1.5564091301076671e-01  -1.1735007300591915e-01  -7.9138376589929810e-02  -4.4585804740600025e-02  -1.1933808648801305e-02  2.1758796099428265e-02  5.7382903080528784e-02  9.6131883795283771e-02  1.3800852490379231e-01  1.8130689617847143e-01  2.2537259524149175e-01  2.6991122570772891e-01  3.1477004133459729e-01  3.5986009700281640e-01  4.0512480428554060e-01  4.5052565327140476e-01  4.9603503356922080e-01  5.4163230582049415e-01  5.8730149836016754e-01  6.3302987837686508e-01  6.7880702298889961e-01  7.2462419059322092e-01  7.7047387995866878e-01  8.1634951049883797e-01  8.6224518261806338e-01  9.0815549169587295e-01  9.5407537798955011e-01  1.0000000000000000e+00  -2.0000000000000000e+00  -1.8765682612610213e+00  -1.7679539537591591e+00  -1.6707492746092638e+00  -1.5826060071841237e+00  -1.5018270891484942e+00  -1.4271388360707251e+00  -1.3575573238981240e+00  -1.2923053295990432e+00  -1.2307579532853630e+00  -1.1724054597290372e+00  -1.1168269932558181e+00  -1.0636714575886534e+00  -1.0126432865227453e+00  -9.6349165196591380e-01  -9.1600214733021623e-01  -8.6999029053443455e-01  -8.2529638846982945e-01  -7.8178143621356500e-01  -7.3932381421790416e-01  -6.9781661009619989e-01  -6.5716543792108206e-01  -6.1728666340320404e-01  -5.7810597224757432e-01  -5.3955724457492782e-01  -5.0158172364988696e-01  -4.6412749753298838e-01  -4.2714935891424449e-01  -3.9060919059438526e-01  -3.5447715626730131e-01  -3.1873410793080836e-01  -2.8337545734583514e-01  -2.4841531222415247e-01  -2.1388477807170286e-01  -1.7981219286878630e-01  -1.4620959465309383e-01  -1.1323121450024631e-01  -8.1388066579327067e-02  -5.0937073737317366e-02  -2.3034893191132572e-02  3.0139522581915687e-03  2.9776934674084349e-02  5.8748283754054345e-02  9.0816287370944271e-02  1.2663610719681401e-01  1.6522031964141423e-01  2.0559646456860159e-01  2.4714725907976676e-01  2.8950226625482656e-01  3.3243384262784414e-01  3.7579554239112750e-01  4.1948846686794117e-01  4.6344277523085781e-01  5.0760717518498477e-01  5.5194269135258811e-01  5.9641880924331092e-01  6.4101099215839352e-01  6.8569902298551322e-01  7.3046585942531517e-01  7.7529681874261580e-01  8.2017897941862028e-01  8.6510072827754259e-01  9.1005140617587810e-01  9.5502102026232805e-01  1.0000000000000000e+00  -2.0000000000000000e+00  -1.8423912193262735e+00  -1.7090205857206988e+00  -1.5935956535847917e+00  -1.4919041768544485e+00  -1.4010042126329663e+00  -1.3187664963268109e+00  -1.2436038063889991e+00  -1.1743037121004340e+00  -1.1099209845248261e+00  -1.0497058998604483e+00  -9.9305497585288516e-01  -9.3947621600439779e-01  -8.8856402291878633e-01  -8.3998072856578787e-01  -7.9344275934236863e-01  -7.4871011519095909e-01  -7.0557826256745271e-01  -6.6387181545534024e-01  -6.2343956210433249e-01  -5.8415052097036479e-01  -5.4589079816911357e-01  -5.0856108403284850e-01  -4.7207467698486477e-01  -4.3635596471946098e-01  -4.0133932928508559e-01  -3.6696847837158225e-01  -3.3319625291608690e-01  -2.9998505921700458e-01  -2.6730830378849091e-01  -2.3515369762967531e-01  -2.0353014436273398e-01  -1.7248065923037825e-01  -1.4209899839660725e-01  -1.1250608922183061e-01  -8.3702142103195681e-02  -5.5709441494479109e-02  -3.0684585567515459e-02  -7.8063395341484753e-03  1.4410978283387034e-02  3.6857271811059911e-02  6.1491507867062332e-02  8.9502300109354421e-02  1.2049785545237993e-01  1.5437593797961383e-01  1.9064018189644902e-01  2.2871138337475397e-01  2.6811771025414727e-01  3.0851673760396647e-01  3.4966752053082523e-01  3.9139976306590846e-01  4.3359074556423860e-01  4.7614980559910064e-01  5.1900820058727315e-01  5.6211247516156271e-01  6.0542005510209451e-01  6.4889625802788475e-01  6.9251221736944490e-01  7.3624340537991073e-01  7.8006855616785908e-01  8.2396886015548476e-01  8.6792734489760903e-01  9.1192838446776903e-01  9.5595729688388387e-01  1.0000000000000000e+00  -2.0000000000000000e+00  -1.8104411163700824e+00  -1.6555104272483352e+00  -1.5251525675785216e+00  -1.4129570650659400e+00  -1.3146233613793927e+00  -1.2271452485727041e+00  -1.1483492686101044e+00  -1.0766194645609588e+00  -1.0107258556704279e+00  -9.4971344007065028e-01  -8.9282799145399327e-01  -8.3946503441887566e-01  -7.8913388595806511e-01  -7.4143176453512827e-01  -6.9602479393295702e-01  -6.5263383404672359e-01  -6.1102375899746497e-01  -5.7099524290146075e-01  -5.3237840183973195e-01  -4.9502783403740536e-01  -4.5881873383751487e-01  -4.2364385095549939e-01  -3.8941113947372269e-01  -3.5604200057737712e-01  -3.2347007339063877e-01  -2.9164056858275872e-01  -2.6051017199755083e-01  -2.3004760570133970e-01  -2.0023514462520228e-01  -1.7107203829605863e-01  -1.4258260702890627e-01  -1.1483728671781863e-01  -8.8019196415938097e-02  -6.2551209231198487e-02  -3.8547504501945176e-02  -1.6785875284403097e-02  3.0830054236675006e-03  2.2708092450267444e-02  4.3090092220646886e-02  6.5116864921812193e-02  8.9829524873750677e-02  1.1727155336392106e-01  1.4729689634960721e-01  1.7972960737281232e-01  2.1425308659001430e-01  2.5049117677981769e-01  2.8809546095810173e-01  3.2677945337606684e-01  3.6631973882558161e-01  4.0654524377744289e-01  4.4732494672400419e-01  4.8855750101403272e-01  5.3016334640344465e-01  5.7207895360429428e-01  6.1425267797561933e-01  6.5664176748160619e-01  6.9921018308447103e-01  7.4192698855702410e-01  7.8476514039342560e-01  8.2770056013785054e-01  8.7071140668963976e-01  9.1377748991370489e-01  9.5687978280543795e-01  1.0000000000000000e+00  -2.0000000000000000e+00  -1.7805208915970145e+00  -1.6067193650029836e+00  -1.4640194250921248e+00  -1.3435867334545821e+00  -1.2397221046639655e+00  -1.1485656133738873e+00  -1.0673990740853592e+00  -9.9424626200982524e-01  -9.2763175741828674e-01  -8.6642914492201850e-01  -8.0976194997288886e-01  -7.5693696124488830e-01  -7.0739813502803850e-01  -6.6069397816334752e-01  -6.1645399481421970e-01  -5.7437137462613108e-01  -5.3419007222782600e-01  -4.9569503858642894e-01  -4.5870475801857469e-01  -4.2306550437987595e-01  -3.8864690633698057e-01  -3.5533853640788732e-01  -3.2304733334065638e-01  -2.9169574806778209e-01  -2.6122057845949131e-01  -2.3157252204593473e-01  -2.0271650782687992e-01  -1.7463287029270866e-01  -1.4731952594183748e-01  -1.2079581915316648e-01  -9.5110032443682505e-02  -7.0356785317382708e-02  -4.6665545748029010e-02  -2.5720632343611511e-02  -6.8161969385189111e-03  1.1116350309552020e-02  2.8757126488588778e-02  4.7470929293125588e-02  6.8133425654010829e-02  9.0690570781791310e-02  1.1543817334220711e-01  1.4245749212297196e-01  1.7168856920931549e-01  2.0299250857201387e-01  2.3615138031097818e-01  2.7090477619640074e-01  3.0699350342237458e-01  3.4418587611661744e-01  3.8228673761799142e-01  4.2113652649427741e-01  4.6060629654030227e-01  5.0059190532958153e-01  5.4100873040817843e-01  5.8178731487655055e-01  6.2286993571448146e-01  6.6420795083844963e-01  7.0575975892980924e-01  7.4748922537028861e-01  7.8936445671096833e-01  8.3135683331285248e-01  8.7344023180939445e-01  9.1559038569197360e-01  9.5778434442416360e-01  1.0000000000000000e+00  -2.0000000000000000e+00  -1.7524858067231912e+00  -1.5620955810846273e+00  -1.4091178431543270e+00  -1.2821634575413479e+00  -1.1741448078613868e+00  -1.0803949339091292e+00  -9.9770127840254563e-01  -9.2377182784904055e-01  -8.5692247606008165e-01  -7.9588499824665937e-01  -7.3968431526059009e-01  -6.8755735275386354e-01  -6.3889782409918250e-01  -5.9321770365758375e-01  -5.5011975675121016e-01  -5.0927758299214598e-01  -4.7042088443806135e-01  -4.3332444607063975e-01  -3.9779980923390634e-01  -3.6368894025997794e-01  -3.3085941215694659e-01  -2.9920076795066952e-01  -2.6862184933710964e-01  -2.3904897966549177e-01  -2.1042501008466064e-01  -1.8270937873417903e-01  -1.5587945339671902e-01  -1.2993347951704515e-01  -1.0489567440906551e-01  -8.0825483783087543e-02  -5.7838274163699854e-02  -3.6158268919012020e-02  -1.6891431532815162e-02  2.1724170025083016e-04  1.6698456849692032e-02  3.3427340722412012e-02  5.1027926975738137e-02  7.0285072579635358e-02  9.1282110320479615e-02  1.1407381920913512e-01  1.3877510559031464e-01  1.6543167257644414e-01  1.9400737979266891e-01  2.2440047739494939e-01  2.5645514988548390e-01  2.8998304427243271e-01  3.2478790041837835e-01  3.6068381005003708e-01  3.9750480903548951e-01  4.3510782804137249e-01  4.7337180761334596e-01  5.1219509335581292e-01  5.5149235502313698e-01  5.9119163977924771e-01  6.3123179916730687e-01  6.7156034122790131e-01  7.1213167642602804e-01  7.5290569728335144e-01  7.9384662776730663e-01  8.3492208459319661e-01  8.7610230154311175e-01  9.1735947662063144e-01  9.5866720919924275e-01  1.0000000000000000e+00  -2.0000000000000000e+00  -1.7262187182190039e+00  -1.5211913683865468e+00  -1.3595975196385728e+00  -1.2274379882056996e+00  -1.1162794461424241e+00  -1.0207055580108289e+00  -9.3706087223868129e-01  -8.6277901861593531e-01  -7.9599941198530966e-01  -7.3533680045924243e-01  -6.7973657521923592e-01  -6.2838055814362948e-01  -5.8062372758126646e-01  -5.3595057854147221e-01  -4.9394432874136396e-01  -4.5426475969129898e-01  -4.1663200694920827e-01  -3.8081454497056322e-01  -3.4662019756028495e-01  -3.1388938347310485e-01  -2.8249005843727576e-01  -2.5231398877418881e-01  -2.2327412337536348e-01  -1.9530295935601602e-01  -1.6835198308126856e-01  -1.4239258694223031e-01  -1.1741930857650196e-01  -9.3456692136621680e-02  -7.0572233740030771e-02  -4.8901871162984722e-02  -2.8759909584864067e-02  -1.0827141954355659e-02  5.2308490304711431e-03  2.0498065616024821e-02  3.6293398400029833e-02  5.3364953640906210e-02  7.1642168112316426e-02  9.1359323729198041e-02  1.1263612383913721e-01  1.3554749014395492e-01  1.6015675723347217e-01  1.8648671279982104e-01  2.1450879998996669e-01  2.4414687132963098e-01  2.7528569756357529e-01  3.0778435058946796e-01  3.4149124392867003e-01  3.7625665462966290e-01  4.1194086043255712e-01  4.4841816902237713e-01  4.8557801251589616e-01  5.2332430545718733e-01  5.6157395654930886e-01  6.0025509004999666e-01  6.3930527994759756e-01  6.7866993847982071e-01  7.1830090826304993e-01  7.5815525956978269e-01  7.9819427248171049e-01  8.3838257574951502e-01  8.7868741314922472e-01  9.1907801004819756e-01  9.5952501575217630e-01  1.0000000000000000e+00  -2.0000000000000000e+00  -1.7016188803004932e+00  -1.4836344171576330e+00  -1.3147746609610611e+00  -1.1784327496311078e+00  -1.0648922017888673e+00  -9.6804867245977844e-01  -8.8385277625712833e-01  -8.0950070506453609e-01  -7.4298281609080608e-01  -6.8281720223015352e-01  -6.2788496116278125e-01  -5.7732431510820059e-01  -5.3046028763846975e-01  -4.8675667234252162e-01  -4.4578243392302930e-01  -4.0718772418837995e-01  -3.7068647281032635e-01  -3.3604358707755638e-01  -3.0306546523484235e-01  -2.7159295968128888e-01  -2.4149621357289741e-01  -2.1267099255273914e-01  -1.8503627940193024e-01  -1.5853304006942781e-01  -1.3312432448083267e-01  -1.0879752065091534e-01  -8.5570986811754457e-02  -6.3509681733747353e-02  -4.2757063480038847e-02  -2.3706134308865368e-02  -6.7570039454950678e-03  8.5690408796560927e-03  2.3242948991166329e-02  3.8335656721890488e-02  5.4612117493496273e-02  7.2096907328866575e-02  9.0816468103423351e-02  1.1087393038570317e-01  1.3235557116291624e-01  1.5532326029407520e-01  1.7981772039979813e-01  2.0584962139940111e-01  2.3339423603774598e-01  2.6239251037003247e-01  2.9275641844971856e-01  3.2437741659319391e-01  3.5713607007717052e-01  3.9091070410738749e-01  4.2558380904269910e-01  4.6104597509968281e-01  4.9719776797067461e-01  5.3395015940773127e-01  5.7122407566691491e-01  6.0894948392383264e-01  6.4706429209326666e-01  6.8551322448073426e-01  7.2424675857656884e-01  7.6322016025101869e-01  8.0239262684023815e-01  8.4172653277392839e-01  8.8118676525607453e-01  9.2074013467075821e-01  9.6035484376126468e-01  1.0000000000000000e+00  -2.0000000000000000e+00  -1.6785964443479240e+00  -1.4491095971697161e+00  -1.2740903929092613e+00  -1.1343691266965361e+00  -1.0190197882983691e+00  -9.2131095976352406e-01  -8.3684422615662890e-01  -7.6261053046825833e-01  -6.9647421695312695e-01  -6.3687335688012636e-01  -5.8263690223512754e-01  -5.3286846320996351e-01  -4.8686984739772415e-01  -4.4408926826862899e-01  -4.0408538416575024e-01  -3.6650180497916918e-01  -3.3104871359599825e-01  -2.9748945405077970e-01  -2.6563068638648735e-01  -2.3531519122409203e-01  -2.0641673452528148e-01  -1.7883663849295614e-01  -1.5250188252062136e-01  -1.2736470871115721e-01  -1.0340398445787927e-01  -8.0629750712467155e-02  -5.9096670433470347e-02  -3.8939070282720700e-02  -2.0592942481711635e-02  -4.3309590287429148e-03  1.0445291236552353e-02  2.4696924671526885e-02  3.9342101851291708e-02  5.4989494786874531e-02  7.1722507523198226e-02  8.9594090077640465e-02  1.0865286658680721e-01  1.2896435854727509e-01  1.5058897013274958e-01  1.7357225946963156e-01  1.9794124267224397e-01  2.2369981636023931e-01  2.5082601239158353e-01  2.7927251566303440e-01  3.0897004927207267e-01  3.3983282725641856e-01  3.7176491567943110e-01  4.0466628268001748e-01  4.3843769653116910e-01  4.7298415436298041e-01  5.0821692485938808e-01  5.4405448853614813e-01  5.8042270278678698e-01  6.1725447788515264e-01  6.5448918002090151e-01  6.9207190877328106e-01  7.2995274131147236e-01  7.6808599601748540e-01  8.0642954185429472e-01  8.4494416324988586e-01  8.8359298043038648e-01  9.2234091961749631e-01  9.6115422462212408e-01  1.0000000000000000e+00  -2.0000000000000000e+00  -1.6570695806389941e+00  -1.4173467058984537e+00  -1.2370817749227121e+00  -1.0946175113814551e+00  -9.7789717325932612e-01  -8.7962053075171232e-01  -7.9508051658086143e-01  -7.2109059037445222e-01  -6.5540835166416656e-01  -5.9640541709843342e-01  -5.4286829903669565e-01  -4.9387305110117807e-01  -4.4870347438284053e-01  -4.0679610910991970e-01  -3.6770228546589095e-01  -3.3106138419340547e-01  -2.9658167978049615e-01  -2.6402646212048725e-01  -2.3320395190390411e-01  -2.0396005881546991e-01  -1.7617340959442285e-01  -1.4975238030874463e-01  -1.2463415808609601e-01  -1.0078613857577057e-01  -7.8210273851711934e-02  -5.6952836161313393e-02  -3.7132486164030545e-02  -1.9157777986839628e-02  -3.3113340950460279e-03  1.1064736591704257e-02  2.4973455518744438e-02  3.9270077218939332e-02  5.4439038955599130e-02  7.0557713051117688e-02  8.7694327734781571e-02  1.0590407887168975e-01  1.2523654961889005e-01  1.4574166708384029e-01  1.6746369135117553e-01  1.9043556477945750e-01  2.1467517445930717e-01  2.4018238897772834e-01  2.6693748150531443e-01  2.9490149061844922e-01  3.2401843571911909e-01  3.5421892748097628e-01  3.8542448270411811e-01  4.1755181440208239e-01  4.5051654003897973e-01  4.8423602096168100e-01  5.1863128856774943e-01  5.5362816709068652e-01  5.8915776905893302e-01  6.2515654480908900e-01  6.6156604133190577e-01  6.9833248928001679e-01  7.3540630187855383e-01  7.7274154065315570e-01  8.1029538130956946e-01  8.4802759794093374e-01  8.8590007359808898e-01  9.2387633874671682e-01  9.6192113510973565e-01  1.0000000000000000e+00  -2.0000000000000000e+00  -1.6369628894910828e+00  -1.3881118090605431e+00  -1.2033610193345095e+00  -1.0586621159388503e+00  -9.4090773932702476e-01  -8.4228331970034731e-01  -7.5780904671956606e-01  -6.8414473152513378e-01  -6.1895732554122773e-01  -5.6056307775232572e-01  -5.0771384748366599e-01  -4.5946370288802618e-01  -4.1508249617267068e-01  -3.7399810288524676e-01  -3.3575679958784721e-01  -2.9999549884231047e-01  -2.6642197535119400e-01  -2.3480064727189587e-01  -2.0494236142868139e-01  -1.7669721466394667e-01  -1.4994988186019498e-01  -1.2461735059471925e-01  -1.0064955972072843e-01  -7.8034431679330246e-02  -5.6810189080254647e-02  -3.7090514508377088e-02  -1.9210139255495976e-02  -3.5327695616621507e-03  1.0592041084398358e-02  2.4213648152499774e-02  3.8200340964874416e-02  5.2970889729886853e-02  6.8586263701047839e-02  8.5107990727215491e-02  1.0259301149312061e-01  1.2109134805544695e-01  1.4064758593322302e-01  1.6130206881802048e-01  1.8308856340865470e-01  2.0603113383771574e-01  2.3014150140779907e-01  2.5541708358605236e-01  2.8184003403349661e-01  3.0937752958632897e-01  3.3798327550497825e-01  3.6759996424424940e-01  3.9816227325398235e-01  4.2959995218521424e-01  4.6184062826098643e-01  4.9481210087701444e-01  5.2844404135924183e-01  5.6266912219991549e-01  5.9742366154916982e-01  6.3264789096036445e-01  6.6828595121761514e-01  7.0428570513632682e-01  7.4059843626957023e-01  7.7717848340701445e-01  8.1398284478989280e-01  8.5097077360619056e-01  8.8810337727431854e-01  9.2534322666154645e-01  9.6265397707010136e-01  1.0000000000000000e+00  -2.0000000000000000e+00  -1.6182064760507546e+00  -1.3612008664695856e+00  -1.1726002220367444e+00  -1.0260756272161147e+00  -9.0754809111307977e-01  -8.0873894374231747e-01  -7.2442737940638902e-01  -6.5113999212043083e-01  -5.8646655186601360e-01  -5.2867703153473167e-01  -4.7649491491265789e-01  -4.2895671069306324e-01  -3.8532150584236269e-01  -3.4501084877280480e-01  -3.0756772000655958e-01  -2.7262792811437275e-01  -2.3989985879503184e-01  -2.0915003320230124e-01  -1.8019287796676117e-01  -1.5288374186604270e-01  -1.2711469411990645e-01  -1.0281321367685786e-01  -7.9945003778388299e-02  -5.8525305492513169e-02  -3.8652283912056412e-02  -2.0616074773947429e-02  -4.8926748370263420e-03  9.1286941591628579e-03  2.2528437375602652e-02  3.6226050067569023e-02 