<?xml version="1.0"?>
<VTKFile type="UnstructuredGrid"  version="0.1"  >
<UnstructuredGrid>
<Piece  NumberOfPoints="4225" NumberOfCells="8192">
<Points>
<DataArray  type="Float64"  NumberOfComponents="3"  format="ascii">0 0 0  0.015625 0 0  0.03125 0 0  0.046875 0 0  0.0625 0 0  0.078125 0 0  0.09375 0 0  0.109375 0 0  0.125 0 0  0.140625 0 0  0.15625 0 0  0.171875 0 0  0.1875 0 0  0.203125 0 0  0.21875 0 0  0.234375 0 0  0.25 0 0  0.265625 0 0  0.28125 0 0  0.296875 0 0  0.3125 0 0  0.328125 0 0  0.34375 0 0  0.359375 0 0  0.375 0 0  0.390625 0 0  0.40625 0 0  0.421875 0 0  0.4375 0 0  0.453125 0 0  0.46875 0 0  0.484375 0 0  0.5 0 0  0.515625 0 0  0.53125 0 0  0.546875 0 0  0.5625 0 0  0.578125 0 0  0.59375 0 0  0.609375 0 0  0.625 0 0  0.640625 0 0  0.65625 0 0  0.671875 0 0  0.6875 0 0  0.703125 0 0  0.71875 0 0  0.734375 0 0  0.75 0 0  0.765625 0 0  0.78125 0 0  0.796875 0 0  0.8125 0 0  0.828125 0 0  0.84375 0 0  0.859375 0 0  0.875 0 0  0.890625 0 0  0.90625 0 0  0.921875 0 0  0.9375 0 0  0.953125 0 0  0.96875 0 0  0.984375 0 0  1 0 0  0 0.015625 0  0.015625 0.015625 0  0.03125 0.015625 0  0.046875 0.015625 0  0.0625 0.015625 0  0.078125 0.015625 0  0.09375 0.015625 0  0.109375 0.015625 0  0.125 0.015625 0  0.140625 0.015625 0  0.15625 0.015625 0  0.171875 0.015625 0  0.1875 0.015625 0  0.203125 0.015625 0  0.21875 0.015625 0  0.234375 0.015625 0  0.25 0.015625 0  0.265625 0.015625 0  0.28125 0.015625 0  0.296875 0.015625 0  0.3125 0.015625 0  0.328125 0.015625 0  0.34375 0.015625 0  0.359375 0.015625 0  0.375 0.015625 0  0.390625 0.015625 0  0.40625 0.015625 0  0.421875 0.015625 0  0.4375 0.015625 0  0.453125 0.015625 0  0.46875 0.015625 0  0.484375 0.015625 0  0.5 0.015625 0  0.515625 0.015625 0  0.53125 0.015625 0  0.546875 0.015625 0  0.5625 0.015625 0  0.578125 0.015625 0  0.59375 0.015625 0  0.609375 0.015625 0  0.625 0.015625 0  0.640625 0.015625 0  0.65625 0.015625 0  0.671875 0.015625 0  0.6875 0.015625 0  0.703125 0.015625 0  0.71875 0.015625 0  0.734375 0.015625 0  0.75 0.015625 0  0.765625 0.015625 0  0.78125 0.015625 0  0.796875 0.015625 0  0.8125 0.015625 0  0.828125 0.015625 0  0.84375 0.015625 0  0.859375 0.015625 0  0.875 0.015625 0  0.890625 0.015625 0  0.90625 0.015625 0  0.921875 0.015625 0  0.9375 0.015625 0  0.953125 0.015625 0  0.96875 0.015625 0  0.984375 0.015625 0  1 0.015625 0  0 0.03125 0  0.015625 0.03125 0  0.03125 0.03125 0  0.046875 0.03125 0  0.0625 0.03125 0  0.078125 0.03125 0  0.09375 0.03125 0  0.109375 0.03125 0  0.125 0.03125 0  0.140625 0.03125 0  0.15625 0.03125 0  0.171875 0.03125 0  0.1875 0.03125 0  0.203125 0.03125 0  0.21875 0.03125 0  0.234375 0.03125 0  0.25 0.03125 0  0.265625 0.03125 0  0.28125 0.03125 0  0.296875 0.03125 0  0.3125 0.03125 0  0.328125 0.03125 0  0.34375 0.03125 0  0.359375 0.03125 0  0.375 0.03125 0  0.390625 0.03125 0  0.40625 0.03125 0  0.421875 0.03125 0  0.4375 0.03125 0  0.453125 0.03125 0  0.46875 0.03125 0  0.484375 0.03125 0  0.5 0.03125 0  0.515625 0.03125 0  0.53125 0.03125 0  0.546875 0.03125 0  0.5625 0.03125 0  0.578125 0.03125 0  0.59375 0.03125 0  0.609375 0.03125 0  0.625 0.03125 0  0.640625 0.03125 0  0.65625 0.03125 0  0.671875 0.03125 0  0.6875 0.03125 0  0.703125 0.03125 0  0.71875 0.03125 0  0.734375 0.03125 0  0.75 0.03125 0  0.765625 0.03125 0  0.78125 0.03125 0  0.796875 0.03125 0  0.8125 0.03125 0  0.828125 0.03125 0  0.84375 0.03125 0  0.859375 0.03125 0  0.875 0.03125 0  0.890625 0.03125 0  0.90625 0.03125 0  0.921875 0.03125 0  0.9375 0.03125 0  0.953125 0.03125 0  0.96875 0.03125 0  0.984375 0.03125 0  1 0.03125 0  0 0.046875 0  0.015625 0.046875 0  0.03125 0.046875 0  0.046875 0.046875 0  0.0625 0.046875 0  0.078125 0.046875 0  0.09375 0.046875 0  0.109375 0.046875 0  0.125 0.046875 0  0.140625 0.046875 0  0.15625 0.046875 0  0.171875 0.046875 0  0.1875 0.046875 0  0.203125 0.046875 0  0.21875 0.046875 0  0.234375 0.046875 0  0.25 0.046875 0  0.265625 0.046875 0  0.28125 0.046875 0  0.296875 0.046875 0  0.3125 0.046875 0  0.328125 0.046875 0  0.34375 0.046875 0  0.359375 0.046875 0  0.375 0.046875 0  0.390625 0.046875 0  0.40625 0.046875 0  0.421875 0.046875 0  0.4375 0.046875 0  0.453125 0.046875 0  0.46875 0.046875 0  0.484375 0.046875 0  0.5 0.046875 0  0.515625 0.046875 0  0.53125 0.046875 0  0.546875 0.046875 0  0.5625 0.046875 0  0.578125 0.046875 0  0.59375 0.046875 0  0.609375 0.046875 0  0.625 0.046875 0  0.640625 0.046875 0  0.65625 0.046875 0  0.671875 0.046875 0  0.6875 0.046875 0  0.703125 0.046875 0  0.71875 0.046875 0  0.734375 0.046875 0  0.75 0.046875 0  0.765625 0.046875 0  0.78125 0.046875 0  0.796875 0.046875 0  0.8125 0.046875 0  0.828125 0.046875 0  0.84375 0.046875 0  0.859375 0.046875 0  0.875 0.046875 0  0.890625 0.046875 0  0.90625 0.046875 0  0.921875 0.046875 0  0.9375 0.046875 0  0.953125 0.046875 0  0.96875 0.046875 0  0.984375 0.046875 0  1 0.046875 0  0 0.0625 0  0.015625 0.0625 0  0.03125 0.0625 0  0.046875 0.0625 0  0.0625 0.0625 0  0.078125 0.0625 0  0.09375 0.0625 0  0.109375 0.0625 0  0.125 0.0625 0  0.140625 0.0625 0  0.15625 0.0625 0  0.171875 0.0625 0  0.1875 0.0625 0  0.203125 0.0625 0  0.21875 0.0625 0  0.234375 0.0625 0  0.25 0.0625 0  0.265625 0.0625 0  0.28125 0.0625 0  0.296875 0.0625 0  0.3125 0.0625 0  0.328125 0.0625 0  0.34375 0.0625 0  0.359375 0.0625 0  0.375 0.0625 0  0.390625 0.0625 0  0.40625 0.0625 0  0.421875 0.0625 0  0.4375 0.0625 0  0.453125 0.0625 0  0.46875 0.0625 0  0.484375 0.0625 0  0.5 0.0625 0  0.515625 0.0625 0  0.53125 0.0625 0  0.546875 0.0625 0  0.5625 0.0625 0  0.578125 0.0625 0  0.59375 0.0625 0  0.609375 0.0625 0  0.625 0.0625 0  0.640625 0.0625 0  0.65625 0.0625 0  0.671875 0.0625 0  0.6875 0.0625 0  0.703125 0.0625 0  0.71875 0.0625 0  0.734375 0.0625 0  0.75 0.0625 0  0.765625 0.0625 0  0.78125 0.0625 0  0.796875 0.0625 0  0.8125 0.0625 0  0.828125 0.0625 0  0.84375 0.0625 0  0.859375 0.0625 0  0.875 0.0625 0  0.890625 0.0625 0  0.90625 0.0625 0  0.921875 0.0625 0  0.9375 0.0625 0  0.953125 0.0625 0  0.96875 0.0625 0  0.984375 0.0625 0  1 0.0625 0  0 0.078125 0  0.015625 0.078125 0  0.03125 0.078125 0  0.046875 0.078125 0  0.0625 0.078125 0  0.078125 0.078125 0  0.09375 0.078125 0  0.109375 0.078125 0  0.125 0.078125 0  0.140625 0.078125 0  0.15625 0.078125 0  0.171875 0.078125 0  0.1875 0.078125 0  0.203125 0.078125 0  0.21875 0.078125 0  0.234375 0.078125 0  0.25 0.078125 0  0.265625 0.078125 0  0.28125 0.078125 0  0.296875 0.078125 0  0.3125 0.078125 0  0.328125 0.078125 0  0.34375 0.078125 0  0.359375 0.078125 0  0.375 0.078125 0  0.390625 0.078125 0  0.40625 0.078125 0  0.421875 0.078125 0  0.4375 0.078125 0  0.453125 0.078125 0  0.46875 0.078125 0  0.484375 0.078125 0  0.5 0.078125 0  0.515625 0.078125 0  0.53125 0.078125 0  0.546875 0.078125 0  0.5625 0.078125 0  0.578125 0.078125 0  0.59375 0.078125 0  0.609375 0.078125 0  0.625 0.078125 0  0.640625 0.078125 0  0.65625 0.078125 0  0.671875 0.078125 0  0.6875 0.078125 0  0.703125 0.078125 0  0.71875 0.078125 0  0.734375 0.078125 0  0.75 0.078125 0  0.765625 0.078125 0  0.78125 0.078125 0  0.796875 0.078125 0  0.8125 0.078125 0  0.828125 0.078125 0  0.84375 0.078125 0  0.859375 0.078125 0  0.875 0.078125 0  0.890625 0.078125 0  0.90625 0.078125 0  0.921875 0.078125 0  0.9375 0.078125 0  0.953125 0.078125 0  0.96875 0.078125 0  0.984375 0.078125 0  1 0.078125 0  0 0.09375 0  0.015625 0.09375 0  0.03125 0.09375 0  0.046875 0.09375 0  0.0625 0.09375 0  0.078125 0.09375 0  0.09375 0.09375 0  0.109375 0.09375 0  0.125 0.09375 0  0.140625 0.09375 0  0.15625 0.09375 0  0.171875 0.09375 0  0.1875 0.09375 0  0.203125 0.09375 0  0.21875 0.09375 0  0.234375 0.09375 0  0.25 0.09375 0  0.265625 0.09375 0  0.28125 0.09375 0  0.296875 0.09375 0  0.3125 0.09375 0  0.328125 0.09375 0  0.34375 0.09375 0  0.359375 0.09375 0  0.375 0.09375 0  0.390625 0.09375 0  0.40625 0.09375 0  0.421875 0.09375 0  0.4375 0.09375 0  0.453125 0.09375 0  0.46875 0.09375 0  0.484375 0.09375 0  0.5 0.09375 0  0.515625 0.09375 0  0.53125 0.09375 0  0.546875 0.09375 0  0.5625 0.09375 0  0.578125 0.09375 0  0.59375 0.09375 0  0.609375 0.09375 0  0.625 0.09375 0  0.640625 0.09375 0  0.65625 0.09375 0  0.671875 0.09375 0  0.6875 0.09375 0  0.703125 0.09375 0  0.71875 0.09375 0  0.734375 0.09375 0  0.75 0.09375 0  0.765625 0.09375 0  0.78125 0.09375 0  0.796875 0.09375 0  0.8125 0.09375 0  0.828125 0.09375 0  0.84375 0.09375 0  0.859375 0.09375 0  0.875 0.09375 0  0.890625 0.09375 0  0.90625 0.09375 0  0.921875 0.09375 0  0.9375 0.09375 0  0.953125 0.09375 0  0.96875 0.09375 0  0.984375 0.09375 0  1 0.09375 0  0 0.109375 0  0.015625 0.109375 0  0.03125 0.109375 0  0.046875 0.109375 0  0.0625 0.109375 0  0.078125 0.109375 0  0.09375 0.109375 0  0.109375 0.109375 0  0.125 0.109375 0  0.140625 0.109375 0  0.15625 0.109375 0  0.171875 0.109375 0  0.1875 0.109375 0  0.203125 0.109375 0  0.21875 0.109375 0  0.234375 0.109375 0  0.25 0.109375 0  0.265625 0.109375 0  0.28125 0.109375 0  0.296875 0.109375 0  0.3125 0.109375 0  0.328125 0.109375 0  0.34375 0.109375 0  0.359375 0.109375 0  0.375 0.109375 0  0.390625 0.109375 0  0.40625 0.109375 0  0.421875 0.109375 0  0.4375 0.109375 0  0.453125 0.109375 0  0.46875 0.109375 0  0.484375 0.109375 0  0.5 0.109375 0  0.515625 0.109375 0  0.53125 0.109375 0  0.546875 0.109375 0  0.5625 0.109375 0  0.578125 0.109375 0  0.59375 0.109375 0  0.609375 0.109375 0  0.625 0.109375 0  0.640625 0.109375 0  0.65625 0.109375 0  0.671875 0.109375 0  0.6875 0.109375 0  0.703125 0.109375 0  0.71875 0.109375 0  0.734375 0.109375 0  0.75 0.109375 0  0.765625 0.109375 0  0.78125 0.109375 0  0.796875 0.109375 0  0.8125 0.109375 0  0.828125 0.109375 0  0.84375 0.109375 0  0.859375 0.109375 0  0.875 0.109375 0  0.890625 0.109375 0  0.90625 0.109375 0  0.921875 0.109375 0  0.9375 0.109375 0  0.953125 0.109375 0  0.96875 0.109375 0  0.984375 0.109375 0  1 0.109375 0  0 0.125 0  0.015625 0.125 0  0.03125 0.125 0  0.046875 0.125 0  0.0625 0.125 0  0.078125 0.125 0  0.09375 0.125 0  0.109375 0.125 0  0.125 0.12
[...]
<PointData  Scalars="f_6"> 
<DataArray  type="Float64"  Name="f_6"  format="ascii">-2.0000000000000000e+00  -1.9531250000000000e+00  -1.9062500000000000e+00  -1.8593750000000000e+00  -1.8125000000000000e+00  -1.7656250000000000e+00  -1.7187500000000000e+00  -1.6718750000000000e+00  -1.6250000000000000e+00  -1.5781250000000000e+00  -1.5312500000000000e+00  -1.4843750000000000e+00  -1.4375000000000000e+00  -1.3906250000000000e+00  -1.3437500000000000e+00  -1.2968750000000000e+00  -1.2500000000000000e+00  -1.2031250000000000e+00  -1.1562500000000000e+00  -1.1093750000000000e+00  -1.0625000000000000e+00  -1.0156250000000000e+00  -9.6874999999999989e-01  -9.2187500000000000e-01  -8.7500000000000000e-01  -8.2812500000000000e-01  -7.8125000000000000e-01  -7.3437500000000000e-01  -6.8750000000000000e-01  -6.4062500000000000e-01  -5.9375000000000000e-01  -5.4687500000000000e-01  -5.0000000000000000e-01  -4.5312500000000000e-01  -4.0625000000000000e-01  -3.5937500000000000e-01  -3.1250000000000000e-01  -2.6562500000000000e-01  -2.1875000000000000e-01  -1.7187500000000000e-01  -1.2500000000000000e-01  -7.8125000000000000e-02  -3.1250000000000000e-02  1.5625000000000000e-02  6.2500000000000000e-02  1.0937500000000000e-01  1.5625000000000000e-01  2.0312500000000000e-01  2.5000000000000000e-01  2.9687500000000000e-01  3.4375000000000000e-01  3.9062500000000000e-01  4.3750000000000000e-01  4.8437500000000000e-01  5.3125000000000000e-01  5.7812500000000000e-01  6.2500000000000000e-01  6.7187500000000000e-01  7.1875000000000000e-01  7.6562500000000000e-01  8.1250000000000000e-01  8.5937500000000000e-01  9.0625000000000000e-01  9.5312500000000000e-01  1.0000000000000000e+00  -2.0000000000000000e+00  -1.9137873054529293e+00  -1.8341167240666820e+00  -1.7595795939694032e+00  -1.6892707530852127e+00  -1.6225363228423992e+00  -1.5588717898450017e+00  -1.4978726435032859e+00  -1.4392066274376869e+00  -1.3825962943008423e+00  -1.3278071240640630e+00  -1.2746389624043717e+00  -1.2229196012204386e+00  -1.1724998265406530e+00  -1.1232495184876410e+00  -1.0750545321185818e+00  -1.0278141734442756e+00  -9.8143913854504305e-01  -9.3584981901835607e-01  -8.9097490134743662e-01  -8.4675020543704749e-01  -8.0311772120524239e-01  -7.6002481348346007e-01  -7.1742357541452351e-01  -6.7527031864070330e-01  -6.3352519274585273e-01  -5.9215192358955970e-01  -5.5111765041359118e-01  -5.1039283747146225e-01  -4.6995127296649974e-01  -4.2977029257044469e-01  -3.8983153323399089e-01  -3.5012233970057799e-01  -3.1063656795041084e-01  -2.7137216830207428e-01  -2.3233561037980466e-01  -1.9357099073239167e-01  -1.5516511639496483e-01  -1.1711078338063262e-01  -7.9163351459527992e-02  -4.4725557687843240e-02  -1.2071335996548234e-02  2.1659113167267308e-02  5.7323088608550565e-02  9.6094838434331073e-02  1.3798518932411494e-01  1.8129237312403679e-01  2.2536399392362377e-01  2.6990671130824095e-01  3.1476838177517719e-01  3.5986042889196596e-01  4.0512650282461071e-01  4.5052825518422468e-01  4.9603818894422697e-01  5.4163574667211245e-01  5.8730501735964946e-01  6.3303331404227503e-01  6.7881024913403754e-01  7.2462710867904823e-01  7.7047641348343221e-01  8.1635160086221181e-01  8.6224678608295913e-01  9.0815657719440124e-01  9.5407592560277776e-01  1.0000000000000000e+00  -2.0000000000000000e+00  -1.8775158177859184e+00  -1.7694696783833883e+00  -1.6725351647245776e+00  -1.5844290394458977e+00  -1.5035070715403351e+00  -1.4285390317983775e+00  -1.3585770080016937e+00  -1.2928737562971779e+00  -1.2308293865504143e+00  -1.1719550255640709e+00  -1.1158471807839105e+00  -1.0621691424451893e+00  -1.0106371823997793e+00  -9.6101011936006064e-01  -9.1308130558997225e-01  -8.6667239207251034e-01  -8.2162842368823774e-01  -7.7781394502906664e-01  -7.3510988555504098e-01  -6.9341105471182707e-01  -6.5262412286926075e-01  -6.1266599891395468e-01  -5.7346254419530573e-01  -5.3494758689211541e-01  -4.9706221848594273e-01  -4.5975435794875374e-01  -4.2297855180165017e-01  -3.8669594763797355e-01  -3.5087439529488584e-01  -3.1548884778264202e-01  -2.8052285027757162e-01  -2.4597260316688391e-01  -2.1185287764460695e-01  -1.7819123692096686e-01  -1.4502390738682633e-01  -1.1247235449034564e-01  -8.0927790980923439e-02  -5.0891712835441097e-02  -2.3255768114266703e-02  2.7634210431655409e-03  2.9559391137044796e-02  5.8587159903629143e-02  9.0715098038326739e-02  1.2657107580465876e-01  1.6517854573809171e-01  2.0557030924840833e-01  2.4713189126221743e-01  2.8949446953416302e-01  3.3243138690050195e-01  3.7579683096807576e-01  4.1949232722225227e-01  4.6344832896806110e-01  5.0761375392057118e-01  5.5194978038457387e-01  5.9642600872420981e-01  6.4101798967541312e-01  6.8570557381482777e-01  7.3047177209872338e-01  7.7530194439246858e-01  8.2018320388245525e-01  8.6510396627522335e-01  9.1005359709186817e-01  9.5502212521670971e-01  1.0000000000000000e+00  -2.0000000000000000e+00  -1.8437279741624000e+00  -1.7110172223071591e+00  -1.5957690291898126e+00  -1.4939117966110957e+00  -1.4026074267294351e+00  -1.3198044538414833e+00  -1.2439746201636743e+00  -1.1739505585360694e+00  -1.1088216532226758e+00  -1.0478648046067727e+00  -9.9049695589862274e-01  -9.3624166376327100e-01  -8.8470501221065967e-01  -8.3555791129195423e-01  -7.8852286338529631e-01  -7.4336392204802504e-01  -6.9987897590655246e-01  -6.5789375536255368e-01  -6.1725713682365813e-01  -5.7783744012470328e-01  -5.3951950019818962e-01  -5.0220235757062814e-01  -4.6579746367759678e-01  -4.3022734271959467e-01  -3.9542469257991619e-01  -3.6133193301313049e-01  -3.2790119466278833e-01  -2.9509465874900309e-01  -2.6288502835714472e-01  -2.3125596516746616e-01  -2.0020337477210279e-01  -1.6974245189487103e-01  -1.3993183465220599e-01  -1.1087505632710878e-01  -8.2683407022544828e-02  -5.5398585505760753e-02  -3.0807263655972240e-02  -8.1458014420169502e-03  1.4022135640544085e-02  3.6540705623885297e-02  6.1256454065562162e-02  8.9330622514950442e-02  1.2037906783646851e-01  1.5429582100788550e-01  1.9058760857518495e-01  2.2867842686928749e-01  2.6809879234267459e-01  3.0850788866569184e-01  3.4966586532459165e-01  3.9140318085758297e-01  4.3359764612826179e-01  4.7615897954519615e-01  5.1901871738542327e-01  5.6212361222140228e-01  6.0543124747720289e-01  6.4890706212033966e-01  6.9252228435113738e-01  7.3625246150854873e-01  7.8007638810526392e-01  8.2397530399991736e-01  8.6793227804361162e-01  9.1193171968113851e-01  9.5595897817219266e-01  1.0000000000000000e+00  -2.0000000000000000e+00  -1.8121200890267504e+00  -1.6578491042027215e+00  -1.5274847301334025e+00  -1.4148529960065939e+00  -1.3158146078782724e+00  -1.2274751056071411e+00  -1.1477394571795272e+00  -1.0750472101304924e+00  -1.0082077946782637e+00  -9.4629410858122354e-01  -8.8857145370944990e-01  -8.3444870600128696e-01  -7.8344392024876841e-01  -7.3515957377877805e-01  -6.8926440967867719e-01  -6.4547990138475375e-01  -6.0357002032090434e-01  -5.6333340947581922e-01  -5.2459734119007395e-01  -4.8721302172039560e-01  -4.5105193196007615e-01  -4.1600298521768458e-01  -3.8197035594292478e-01  -3.4887190220432496e-01  -3.1663818035350166e-01  -2.8521212941879881e-01  -2.5454954632521182e-01  -2.2462038566509596e-01  -1.9541055770130508e-01  -1.6692312532393150e-01  -1.3917703250485641e-01  -1.1220705872209918e-01  -8.6130350601251446e-02  -6.1226828716772139e-02  -3.8061029589731427e-02  -1.6942910555860606e-02  2.7024190593153839e-03  2.2239467242772950e-02  4.2651763736715885e-02  6.4799561778798948e-02  8.9595096986368097e-02  1.1709980825414198e-01  1.4717472978471141e-01  1.7964553181522985e-01  2.1419764068547517e-01  2.5045699731088172e-01  2.8807696257350135e-01  3.2677242746133811e-01  3.6632100487458991e-01  4.0655238100940283e-01  4.4733609688801568e-01  4.8857122569903833e-01  5.3017852385452358e-01  5.7209470363840820e-01  6.1426830684285982e-01  6.5665672697760524e-01  6.9922403996083393e-01  7.4193940147907023e-01  7.8477584252012123e-01  8.2770934596833845e-01  8.7071812221816702e-01  9.1378202541688158e-01  9.5688206779092255e-01  1.0000000000000000e+00  -2.0000000000000000e+00  -1.7824998678855259e+00  -1.6092857956818245e+00  -1.4663367551407021e+00  -1.3451639976100584e+00  -1.2402877891792186e+00  -1.1479898783293137e+00  -1.0656445805865720e+00  -9.9133633287915301e-01  -9.2362931027305173e-01  -8.6142248480645289e-01  -8.0385502992675351e-01  -7.5024261450968721e-01  -7.0003332262543327e-01  -6.5277642912349887e-01  -6.0809982704695531e-01  -5.6569342046924331e-01  -5.2529672240759628e-01  -4.8668947863980361e-01  -4.4968451232045942e-01  -4.1412223066842024e-01  -3.7986640105956593e-01  -3.4680091987134648e-01  -3.1482738659777315e-01  -2.8386338266344086e-01  -2.5384147057536388e-01  -2.2470910584750889e-01  -1.9642988421712668e-01  -1.6898672624659050e-01  -1.4238751712285613e-01  -1.1667265970852272e-01  -9.1917343763984471e-02  -6.8187191145566886e-02  -4.5599157104550703e-02  -2.5404439307212014e-02  -7.0251354733894067e-03  1.0652555965699832e-02  2.8295531880255083e-02  4.7062957542465589e-02  6.7779045549031122e-02  9.0410680768226517e-02  1.1522456384696926e-01  1.4229878373053803e-01  1.7157451123300529e-01  2.0291393578284728e-01  2.3610042504060427e-01  2.7087495911526283e-01  3.0697963317911126e-01  3.4418385373156918e-01  3.8229334570302703e-01  4.2114924141742277e-01  4.6062313471535959e-01  5.0061130250841779e-01  5.4102944869522451e-01  5.8180837163484711e-01  6.2289054927822274e-01  6.6422749898638744e-01  7.0577774703552287e-01  7.4750526192677658e-01  7.8937823452781208e-01  8.3136811513514797e-01  8.7344883944383722e-01  9.1559619197729802e-01  9.5778726757461641e-01  1.0000000000000000e+00  -2.0000000000000000e+00  -1.7547264102761126e+00  -1.5647952006953318e+00  -1.4112884794365237e+00  -1.2832789036696910e+00  -1.1739533583268134e+00  -1.0788105892826627e+00  -9.9473874258435735e-01  -9.1950667557575749e-01  -8.5146621089620678e-01  -7.8936915616380754e-01  -7.3225019531009128e-01  -6.7934932304005269e-01  -6.3005894276444563e-01  -5.8388686504317977e-01  -5.4042985940954047e-01  -4.9935439484181432e-01  -4.6038239437549050e-01  -4.2328056601134828e-01  -3.8785234070788466e-01  -3.5393175371818064e-01  -3.2137880860369533e-01  -2.9007600040602532e-01  -2.5992577150506718e-01  -2.3084876132072249e-01  -2.0278284797346252e-01  -1.7568327349683849e-01  -1.4952471353826924e-01  -1.2430703407224836e-01  -1.0006811086227095e-01  -7.6912816704568093e-02  -5.5085397065773929e-02  -3.4812884728197845e-02  -1.6552662447740799e-02  7.7438955146713634e-05  1.6260664477572562e-02  3.2899158147036228e-02  5.0613196913192715e-02  6.9937785497803190e-02  9.0990780148716574e-02  1.1383955189810679e-01  1.3859369390274434e-01  1.6529625158803576e-01  1.9391059563392449e-01  2.2433527504255013e-01  2.5641516457883162e-01  2.8996278093045402e-01  3.2478275729611145e-01  3.6069000858280037e-01  3.9751928278852644e-01  4.3512810424190124e-01  4.7339589804758209e-01  5.1222140092404866e-01  5.5151959678310958e-01  5.9121878492753288e-01  6.3125801964879669e-01  6.7158497265419936e-01  7.1215418726809376e-01  7.5292566466470068e-01  7.9386371852920279e-01  8.3493604060060367e-01  8.7611292844473554e-01  9.1736663547385666e-01  9.5867081053024494e-01  1.0000000000000000e+00  -2.0000000000000000e+00  -1.7286858579427011e+00  -1.5239458211819208e+00  -1.3615218062113401e+00  -1.2279947337565005e+00  -1.1152552352272156e+00  -1.0180701296372952e+00  -9.3288728559656353e-01  -8.5719720723586046e-01  -7.8916861811352812e-01  -7.2742898943631329e-01  -6.7092639038280444e-01  -6.1883925100436732e-01  -5.7051554467500254e-01  -5.2543068734852105e-01  -4.8315771904642724e-01  -4.4334577037777501e-01  -4.0570426048872321e-01  -3.6999115643775654e-01  -3.3600418164572277e-01  -3.0357422334981216e-01  -2.7256043005021158e-01  -2.4284665093497296e-01  -2.1433897195040774e-01  -1.8696416815357791e-01  -1.6066898922928555e-01  -1.3542055229583033e-01  -1.1120916091874317e-01  -8.8056717270912577e-02  -6.6036370566066968e-02  -4.5324958761771277e-02  -2.6892504252589076e-02  -1.0336959317111356e-02  5.1297249206837614e-03  2.0221850165514258e-02  3.5957096623972229e-02  5.3002913132906240e-02  7.1320312127676380e-02  9.1084207386837909e-02  1.1240673764992518e-01  1.3536305277273980e-01  1.6001440827786553e-01  1.8638193308493620e-01  2.1443634467210690e-01  2.4410140417459714e-01  2.7526217730171815e-01  3.0777824273161014e-01  3.4149860649208047e-01  3.7627414051499419e-01  4.1196567262637745e-01  4.4844799471407343e-01  4.8561095230901891e-01  5.2335880635708532e-01  5.6160875258563248e-01  6.0028915164337826e-01  6.3933777173523254e-01  6.7870018471351934e-01  7.1832836471795203e-01  7.5817949093472969e-01  7.9821493432369450e-01  8.3839940029332882e-01  8.7870019826064483e-01  9.1908661094314847e-01  9.5952933907250648e-01  1.0000000000000000e+00  -2.0000000000000000e+00  -1.7042804182387865e+00  -1.4863789194272261e+00  -1.3163781325644708e+00  -1.1783678487270730e+00  -1.0629980651333519e+00  -9.6435850281142466e-01  -8.7850079045235763e-01  -8.0267064537009580e-01  -7.3487899732986106e-01  -6.7364813458941775e-01  -6.1785415419521283e-01  -5.6662525477299919e-01  -5.1927386740924264e-01  -4.7525007645361955e-01  -4.3410888009759890e-01  -3.9548671252575818e-01  -3.5908433119319239e-01  -3.2465419305302912e-01  -2.9199108441897698e-01  -2.6092518742280130e-01  -2.3131705164375599e-01  -2.0305414202187261e-01  -1.7604877039544456e-01  -1.5023727345990850e-01  -1.2558028891998146e-01  -1.0206428689329382e-01  -7.9706749575219171e-02  -5.8573996967455973e-02  -3.8828545015236811e-02  -2.1487565682002222e-02  -6.1530693526951098e-03  8.3854288339307199e-03  2.2926790694886429e-02  3.8060553162348292e-02  5.4342958719895841e-02  7.1835085632940124e-02  9.0580931077768642e-02  1.1067199427194691e-01  1.3218891029140639e-01  1.5519151326506178e-01  1.7971895335104182e-01  2.0578072780173659e-01  2.3335144579496975e-01  2.6237181968201334e-01  2.9275389772183380e-01  3.2438940620218798e-01  3.5715928542560554e-01  3.9094227435871887e-01  4.2562127248791592e-01  4.6108724967899628e-01  4.9724111011733524e-01  5.3399411960964127e-01  5.7126745555895686e-01  6.0899129732511514e-01  6.4710373093523577e-01  6.8554962974669376e-01  7.2427959595546532e-01  7.6324900003257223e-01  8.0241712753751726e-01  8.4174642798837174e-01  8.8120185336136614e-01  9.2075027096558659e-01  9.6035993481663229e-01  1.0000000000000000e+00  -2.0000000000000000e+00  -1.6814229909456444e+00  -1.4517908922645426e+00  -1.2753185204249513e+00  -1.1336447649946104e+00  -1.0162451263430876e+00  -9.1658710138606014e-01  -8.3036686518783986e-01  -7.5461500517983771e-01  -6.8720629843196201e-01  -6.2657383623575780e-01  -5.7153373146074771e-01  -5.2117308345711477e-01  -4.7477584675260992e-01  -4.3177232526678760e-01  -3.9170390414109835e-01  -3.5419791185645261e-01  -3.1894940818349127e-01  -2.8570783958941748e-01  -2.5426722156653925e-01  -2.2445898070062067e-01  -1.9614692958703681e-01  -1.6922412953518320e-01  -1.4361166321012986e-01  -1.1925956075851442e-01  -9.6150124059623837e-02  -7.4303909697551726e-02  -5.3794282718763131e-02  -3.4815909583118594e-02  -1.8177650362138902e-02  -3.5545105631029483e-03  1.0213484917763433e-02  2.4212409014933066e-02  3.9026652571871608e-02  5.4750613069096635e-02  7.1519099460322755e-02  8.9413539601189779e-02  1.0849633227851115e-01  1.2883392833177471e-01  1.5048539597869184e-01  1.7349513664505908e-01  1.9788916405950338e-01  2.2367057897599862e-01  2.5081689102402227e-01  2.7928053103665268e-01  3.0899218770141584e-01  3.3986619892970232e-01  3.7180685464943453e-01  4.0471439900635992e-01  4.3848989328757093e-01  4.7303862139666047e-01  5.0827211887168466e-01  5.4410910640518784e-01  5.8047565271543855e-01  6.1730485116288969e-01  6.5453622493390251e-01  6.9211500738255483e-01  7.2999138932464314e-01  7.6811978570257666e-01  8.0645814780543068e-01  8.4496733076127495e-01  8.8361051623086140e-01  9.2235268474119969e-01  9.6116012922843608e-01  1.0000000000000000e+00  -2.0000000000000000e+00  -1.6600343606927490e+00  -1.4199214347910265e+00  -1.2378959632465281e+00  -1.0932146300407906e+00  -9.7424975026172611e-01  -8.7389949102482045e-01  -7.8754165138825438e-01  -7.1201764831770409e-01  -6.4508454489120093e-01  -5.8509957892624753e-01  -5.3082872216234656e-01  -4.8132537102459444e-01  -4.3585066060357275e-01  -3.9381951728328141e-01  -3.5476320256589000e-01  -3.1830276173485839e-01  -2.8412989785115861e-01  -2.5199305294541086e-01  -2.2168726636458164e-01  -1.9304690454988876e-01  -1.6594075469589506e-01  -1.4026937543414481e-01  -1.1596518153997275e-01  -9.2996746393770729e-02  -7.1380213841042345e-02  -5.1201696271843296e-02  -3.2672420651282001e-02  -1.6499115737048990e-02  -2.2906064072667760e-03  1.1031874352824900e-02  2.4556155325080056e-02  3.8954055766449669e-02  5.4216797508570322e-02  7.0396147081843843e-02  8.7569286451108744e-02  1.0580364103298512e-01  1.2515693010331147e-01  1.4568199079794886e-01  1.6742360864652731e-01  1.9041447327697922e-01  2.1467198726591402e-01  2.4019553301873220e-01  2.6696500828846792e-01  2.9494122573915899e-01  3.2406812311747440e-01  3.5427634716577111e-01  3.8548753523607016e-01  4.1761857372971561e-01  4.5058528025934808e-01  4.8430522374838969e-01  5.1869963756755488e-01  5.5369453442398719e-01  5.8922119773471993e-01  6.2521622967710233e-01  6.6162131025493010e-01  6.9838278552497957e-01  7.3545116825797596e-01  7.7278060564766038e-01  8.1032834722035341e-01  8.4805423102043587e-01  8.8592019605960459e-01  9.2388982253991547e-01  9.6192789735591178e-01  1.0000000000000000e+00  -2.0000000000000000e+00  -1.6400416443815498e+00  -1.3905451828765647e+00  -1.2037355166643513e+00  -1.0565757396622433e+00  -9.3640797363163719e-01  -8.3561094796477153e-01  -7.4927746064761946e-01  -6.7408239944742876e-01  -6.0768082675547963e-01  -5.4836529442049475e-01  -4.9485975028042839e-01  -4.4618991222875726e-01  -4.0159865629414160e-01  -3.6048905273532927e-01  -3.2238501894056593e-01  -2.8690357145789797e-01  -2.5373495460277978e-01  -2.2262829151664204e-01  -1.9338125774827475e-01  -1.6583284802223219e-01  -1.3985874993002342e-01  -1.1536934081913276e-01  -9.2311352277039446e-02  -7.0677288917159312e-02  -5.0536409762787199e-02  -3.2134302851670786e-02  -1.6178108236498123e-02  -2.2177095596508387e-03  1.0843263635123061e-02  2.4043928894981550e-02  3.8025206263282270e-02  5.2830861217215232e-02  6.8490334614116161e-02  8.5047891298599659e-02  1.0255825822928326e-01  1.2107480797633054e-01  1.4064575630380075e-01  1.6131349611018195e-01  1.8311257453248925e-01  2.0606716055041646e-01  2.3018877870844134e-01  2.5547455754454818e-01  2.8190638337195839e-01  3.0945124051404110e-01  3.3806273186355162e-01  3.6768353137983739e-01  3.9824836539935965e-01  4.2968708041708448e-01  4.6192743027171612e-01  4.9489735576999538e-01  5.2852667322615787e-01  5.6274819598848624e-01  5.9749837412235185e-01  6.3271755955586995e-01  6.6835000088373497e-01  7.0434365620445760e-01  7.4064989253462044e-01  7.7722312140973560e-01  8.1402040440788614e-01  8.5100105004051052e-01  8.8812621444720552e-01  9.2535851200294617e-01  9.6266163765529622e-01  1.0000000000000000e+00  -2.0000000000000000e+00  -1.6213773818389832e+00  -1.3634655655770638e+00  -1.1725197053824818e+00  -1.0233114074109484e+00  -9.0222505045960899e-01  -8.0116638462508305e-01  -7.1497310224960764e-01  -6.4017330042100207e-01  -5.7433346134397079e-01  -5.1569083314155195e-01  -4.6293406599501713e-01  -4.1506613294664030e-01  -3.7131534949389766e-01  -3.3107576618166412e-01  -2.9386619123278257e-01  -2.5930143950999196e-01  -2.2707187435939280e-01  -1.9692878127575433e-01  -1.6867403977573295e-01  -1.4215319496459519e-01  -1.1725153630695781e-01  -9.3893346274010178e-02  -7.2045679125745304e-02  -5.1733395773010053e-02  -3.3108881397057831e-02  -1.7089836378018159e-02  -3.2218387432299072e-03  9.6642811270270888e-03  2.2625285420364422e-02  3.6275371328695974e-02 