<?xml version="1.0"?>
<VTKFile type="UnstructuredGrid"  version="0.1"  >
<UnstructuredGrid>
<Piece  NumberOfPoints="441" NumberOfCells="800">
<Points>
<DataArray  type="Float64"  NumberOfComponents="3"  format="ascii">0 0 0  0.05 0 0  0.1 0 0  0.15 0 0  0.2 0 0  0.25 0 0  0.3 0 0  0.35 0 0  0.4 0 0  0.45 0 0  0.5 0 0  0.55 0 0  0.6 0 0  0.65 0 0  0.7 0 0  0.75 0 0  0.8 0 0  0.85 0 0  0.9 0 0  0.95 0 0  1 0 0  0 0.05 0  0.05 0.05 0  0.1 0.05 0  0.15 0.05 0  0.2 0.05 0  0.25 0.05 0  0.3 0.05 0  0.35 0.05 0  0.4 0.05 0  0.45 0.05 0  0.5 0.05 0  0.55 0.05 0  0.6 0.05 0  0.65 0.05 0  0.7 0.05 0  0.75 0.05 0  0.8 0.05 0  0.85 0.05 0  0.9 0.05 0  0.95 0.05 0  1 0.05 0  0 0.1 0  0.05 0.1 0  0.1 0.1 0  0.15 0.1 0  0.2 0.1 0  0.25 0.1 0  0.3 0.1 0  0.35 0.1 0  0.4 0.1 0  0.45 0.1 0  0.5 0.1 0  0.55 0.1 0  0.6 0.1 0  0.65 0.1 0  0.7 0.1 0  0.75 0.1 0  0.8 0.1 0  0.85 0.1 0  0.9 0.1 0  0.95 0.1 0  1 0.1 0  0 0.15 0  0.05 0.15 0  0.1 0.15 0  0.15 0.15 0  0.2 0.15 0  0.25 0.15 0  0.3 0.15 0  0.35 0.15 0  0.4 0.15 0  0.45 0.15 0  0.5 0.15 0  0.55 0.15 0  0.6 0.15 0  0.65 0.15 0  0.7 0.15 0  0.75 0.15 0  0.8 0.15 0  0.85 0.15 0  0.9 0.15 0  0.95 0.15 0  1 0.15 0  0 0.2 0  0.05 0.2 0  0.1 0.2 0  0.15 0.2 0  0.2 0.2 0  0.25 0.2 0  0.3 0.2 0  0.35 0.2 0  0.4 0.2 0  0.45 0.2 0  0.5 0.2 0  0.55 0.2 0  0.6 0.2 0  0.65 0.2 0  0.7 0.2 0  0.75 0.2 0  0.8 0.2 0  0.85 0.2 0  0.9 0.2 0  0.95 0.2 0  1 0.2 0  0 0.25 0  0.05 0.25 0  0.1 0.25 0  0.15 0.25 0  0.2 0.25 0  0.25 0.25 0  0.3 0.25 0  0.35 0.25 0  0.4 0.25 0  0.45 0.25 0  0.5 0.25 0  0.55 0.25 0  0.6 0.25 0  0.65 0.25 0  0.7 0.25 0  0.75 0.25 0  0.8 0.25 0  0.85 0.25 0  0.9 0.25 0  0.95 0.25 0  1 0.25 0  0 0.3 0  0.05 0.3 0  0.1 0.3 0  0.15 0.3 0  0.2 0.3 0  0.25 0.3 0  0.3 0.3 0  0.35 0.3 0  0.4 0.3 0  0.45 0.3 0  0.5 0.3 0  0.55 0.3 0  0.6 0.3 0  0.65 0.3 0  0.7 0.3 0  0.75 0.3 0  0.8 0.3 0  0.85 0.3 0  0.9 0.3 0  0.95 0.3 0  1 0.3 0  0 0.35 0  0.05 0.35 0  0.1 0.35 0  0.15 0.35 0  0.2 0.35 0  0.25 0.35 0  0.3 0.35 0  0.35 0.35 0  0.4 0.35 0  0.45 0.35 0  0.5 0.35 0  0.55 0.35 0  0.6 0.35 0  0.65 0.35 0  0.7 0.35 0  0.75 0.35 0  0.8 0.35 0  0.85 0.35 0  0.9 0.35 0  0.95 0.35 0  1 0.35 0  0 0.4 0  0.05 0.4 0  0.1 0.4 0  0.15 0.4 0  0.2 0.4 0  0.25 0.4 0  0.3 0.4 0  0.35 0.4 0  0.4 0.4 0  0.45 0.4 0  0.5 0.4 0  0.55 0.4 0  0.6 0.4 0  0.65 0.4 0  0.7 0.4 0  0.75 0.4 0  0.8 0.4 0  0.85 0.4 0  0.9 0.4 0  0.95 0.4 0  1 0.4 0  0 0.45 0  0.05 0.45 0  0.1 0.45 0  0.15 0.45 0  0.2 0.45 0  0.25 0.45 0  0.3 0.45 0  0.35 0.45 0  0.4 0.45 0  0.45 0.45 0  0.5 0.45 0  0.55 0.45 0  0.6 0.45 0  0.65 0.45 0  0.7 0.45 0  0.75 0.45 0  0.8 0.45 0  0.85 0.45 0  0.9 0.45 0  0.95 0.45 0  1 0.45 0  0 0.5 0  0.05 0.5 0  0.1 0.5 0  0.15 0.5 0  0.2 0.5 0  0.25 0.5 0  0.3 0.5 0  0.35 0.5 0  0.4 0.5 0  0.45 0.5 0  0.5 0.5 0  0.55 0.5 0  0.6 0.5 0  0.65 0.5 0  0.7 0.5 0  0.75 0.5 0  0.8 0.5 0  0.85 0.5 0  0.9 0.5 0  0.95 0.5 0  1 0.5 0  0 0.55 0  0.05 0.55 0  0.1 0.55 0  0.15 0.55 0  0.2 0.55 0  0.25 0.55 0  0.3 0.55 0  0.35 0.55 0  0.4 0.55 0  0.45 0.55 0  0.5 0.55 0  0.55 0.55 0  0.6 0.55 0  0.65 0.55 0  0.7 0.55 0  0.75 0.55 0  0.8 0.55 0  0.85 0.55 0  0.9 0.55 0  0.95 0.55 0  1 0.55 0  0 0.6 0  0.05 0.6 0  0.1 0.6 0  0.15 0.6 0  0.2 0.6 0  0.25 0.6 0  0.3 0.6 0  0.35 0.6 0  0.4 0.6 0  0.45 0.6 0  0.5 0.6 0  0.55 0.6 0  0.6 0.6 0  0.65 0.6 0  0.7 0.6 0  0.75 0.6 0  0.8 0.6 0  0.85 0.6 0  0.9 0.6 0  0.95 0.6 0  1 0.6 0  0 0.65 0  0.05 0.65 0  0.1 0.65 0  0.15 0.65 0  0.2 0.65 0  0.25 0.65 0  0.3 0.65 0  0.35 0.65 0  0.4 0.65 0  0.45 0.65 0  0.5 0.65 0  0.55 0.65 0  0.6 0.65 0  0.65 0.65 0  0.7 0.65 0  0.75 0.65 0  0.8 0.65 0  0.85 0.65 0  0.9 0.65 0  0.95 0.65 0  1 0.65 0  0 0.7 0  0.05 0.7 0  0.1 0.7 0  0.15 0.7 0  0.2 0.7 0  0.25 0.7 0  0.3 0.7 0  0.35 0.7 0  0.4 0.7 0  0.45 0.7 0  0.5 0.7 0  0.55 0.7 0  0.6 0.7 0  0.65 0.7 0  0.7 0.7 0  0.75 0.7 0  0.8 0.7 0  0.85 0.7 0  0.9 0.7 0  0.95 0.7 0  1 0.7 0  0 0.75 0  0.05 0.75 0  0.1 0.75 0  0.15 0.75 0  0.2 0.75 0  0.25 0.75 0  0.3 0.75 0  0.35 0.75 0  0.4 0.75 0  0.45 0.75 0  0.5 0.75 0  0.55 0.75 0  0.6 0.75 0  0.65 0.75 0  0.7 0.75 0  0.75 0.75 0  0.8 0.75 0  0.85 0.75 0  0.9 0.75 0  0.95 0.75 0  1 0.75 0  0 0.8 0  0.05 0.8 0  0.1 0.8 0  0.15 0.8 0  0.2 0.8 0  0.25 0.8 0  0.3 0.8 0  0.35 0.8 0  0.4 0.8 0  0.45 0.8 0  0.5 0.8 0  0.55 0.8 0  0.6 0.8 0  0.65 0.8 0  0.7 0.8 0  0.75 0.8 0  0.8 0.8 0  0.85 0.8 0  0.9 0.8 0  0.95 0.8 0  1 0.8 0  0 0.85 0  0.05 0.85 0  0.1 0.85 0  0.15 0.85 0  0.2 0.85 0  0.25 0.85 0  0.3 0.85 0  0.35 0.85 0  0.4 0.85 0  0.45 0.85 0  0.5 0.85 0  0.55 0.85 0  0.6 0.85 0  0.65 0.85 0  0.7 0.85 0  0.75 0.85 0  0.8 0.85 0  0.85 0.85 0  0.9 0.85 0  0.95 0.85 0  1 0.85 0  0 0.9 0  0.05 0.9 0  0.1 0.9 0  0.15 0.9 0  0.2 0.9 0  0.25 0.9 0  0.3 0.9 0  0.35 0.9 0  0.4 0.9 0  0.45 0.9 0  0.5 0.9 0  0.55 0.9 0  0.6 0.9 0  0.65 0.9 0  0.7 0.9 0  0.75 0.9 0  0.8 0.9 0  0.85 0.9 0  0.9 0.9 0  0.95 0.9 0  1 0.9 0  0 0.95 0  0.05 0.95 0  0.1 0.95 0  0.15 0.95 0  0.2 0.95 0  0.25 0.95 0  0.3 0.95 0  0.35 0.95 0  0.4 0.95 0  0.45 0.95 0  0.5 0.95 0  0.55 0.95 0  0.6 0.95 0  0.65 0.95 0  0.7 0.95 0  0.75 0.95 0  0.8 0.95 0  0.85 0.95 0  0.9 0.95 0  0.95 0.95 0  1 0.95 0  0 1 0  0.05 1 0  0.1 1 0  0.15 1 0  0.2 1 0  0.25 1 0  0.3 1 0  0.35 1 0  0.4 1 0  0.45 1 0  0.5 1 0  0.55 1 0  0.6 1 0  0.65 1 0  0.7 1 0  0.75 1 0  0.8 1 0  0.85 1 0  0.9 1 0  0.95 1 0  1 1 0  </DataArray>
</Points>
<Cells>
[...]
<PointData  Scalars="f_6"> 
<DataArray  type="Float64"  Name="f_6"  format="ascii">-2.0000000000000000e+00  -1.8499999999999999e+00  -1.7000000000000000e+00  -1.5500000000000000e+00  -1.4000000000000001e+00  -1.2500000000000000e+00  -1.0999999999999999e+00  -9.5000000000000007e-01  -7.9999999999999993e-01  -6.5000000000000013e-01  -5.0000000000000000e-01  -3.4999999999999981e-01  -2.0000000000000007e-01  -4.9999999999999933e-02  9.9999999999999867e-02  2.5000000000000000e-01  4.0000000000000013e-01  5.4999999999999993e-01  7.0000000000000007e-01  8.4999999999999987e-01  1.0000000000000000e+00  -2.0000000000000000e+00  -2.0342834374702778e-01  4.4833038574212836e-02  1.1065671501046352e-01  1.3339083674245547e-01  1.3625093147316905e-01  1.2378355757614103e-01  9.8810669366550710e-02  6.0846706751038863e-02  -6.0044330775994234e-03  -5.0053537324975250e-02  -2.5259175057378135e-02  4.0225556153160494e-02  1.2240520073515788e-01  2.2074894499184847e-01  3.3529298392858264e-01  4.6168806341786572e-01  5.9339339788760559e-01  7.2778961060445757e-01  8.6358831303099370e-01  1.0000000000000000e+00  -2.0000000000000000e+00  8.9025191184789160e-02  2.2511449997374805e-01  2.4112324017805875e-01  2.3947394578195549e-01  2.2950166066559494e-01  2.0779363422440364e-01  1.7639486463769427e-01  1.4992785842898829e-01  1.2664376414470235e-01  1.1081931881617595e-01  1.1845271536817131e-01  1.5925486096644856e-01  2.2567485460111353e-01  3.1003533113447995e-01  4.0873492730461652e-01  5.1806587185527431e-01  6.3409591752809957e-01  7.5417673149923026e-01  8.7656364151951782e-01  1.0000000000000000e+00  -2.0000000000000000e+00  1.7509337186472487e-01  2.5467246030407842e-01  2.5928876201072770e-01  2.5545453136720125e-01  2.4757453320300507e-01  2.3663747429376858e-01  2.2139447065999274e-01  2.0479759683002391e-01  1.9464942313420627e-01  1.9554927975292882e-01  2.1355571906339901e-01  2.5266631774334908e-01  3.1100402556836787e-01  3.8498259764034143e-01  4.7154552230012903e-01  5.6774457917051535e-01  6.7074766887028914e-01  7.7825775634484595e-01  8.8848952154784844e-01  1.0000000000000000e+00  -2.0000000000000000e+00  2.1395745901113972e-01  2.6367144854408259e-01  2.6746477496849619e-01  2.6659771850608416e-01  2.6332433193121385e-01  2.5827694231267939e-01  2.5289178761861819e-01  2.4938001810932944e-01  2.5160705180916998e-01  2.6317265799793421e-01  2.8755456338914687e-01  3.2685066537518109e-01  3.8069233228866711e-01  4.4734551155838925e-01  5.2471998508504314e-01  6.1061925365636882e-01  7.0289242243769567e-01  7.9961710346201587e-01  8.9913668832702998e-01  1.0000000000000000e+00  -2.0000000000000000e+00  2.3554093937045456e-01  2.6848928316037962e-01  2.7414824923262054e-01  2.7653603363604989e-01  2.7800982798390372e-01  2.7968468361208887e-01  2.8251571939247117e-01  2.8822363617950569e-01  2.9922610799521010e-01  3.1797973704049098e-01  3.4663921112007318e-01  3.8648944807956148e-01  4.3756912665273046e-01  4.9898713121950561e-01  5.6936965282528607e-01  6.4712002793222079e-01  7.3058566376210887e-01  8.1818154673849186e-01  9.0844012829825627e-01  1.0000000000000000e+00  -2.0000000000000000e+00  2.4795999458124529e-01  2.7161888164675480e-01  2.8015213554981017e-01  2.8606757213573125e-01  2.9249426275626217e-01  2.9993624475930108e-01  3.0926277015967202e-01  3.2177269922101193e-01  3.3909400695167391e-01  3.6288097104874661e-01  3.9453309597109371e-01  4.3489878917026109e-01  4.8410759502318756e-01  5.4166423384161677e-01  6.0665146706437489e-01  6.7790554148512039e-01  7.5414865794002750e-01  8.3408329143158677e-01  9.1644227812750323e-01  1.0000000000000000e+00  -2.0000000000000000e+00  2.5242187157800561e-01  2.7393722727821995e-01  2.8526085737354190e-01  2.9508785660080283e-01  3.0596340614611273e-01  3.1830326250918145e-01  3.3282641726590378e-01  3.5051038359319675e-01  3.7249624954172678e-01  3.9991704423172797e-01  4.3371341254529377e-01  4.7446501760720156e-01  5.2229823042814250e-01  5.7691074205939885e-01  6.3766644010547591e-01  7.0370201300385848e-01  7.7402013508129464e-01  8.4756068292032505e-01  9.2324569278016988e-01  1.0000000000000000e+00  -2.0000000000000000e+00  2.5099657874406889e-01  2.7558397171710719e-01  2.8929257797176555e-01  3.0305959074782574e-01  3.1796824271820429e-01  3.3448698186540854e-01  3.5322925280156531e-01  3.7494616834414379e-01  4.0046356339030836e-01  4.3057754379114521e-01  4.6593849237115154e-01  5.0694963828510931e-01  5.5370956702278207e-01  6.0601406386236101e-01  6.6340153829427184e-01  7.2521593534354334e-01  7.9066918646096740e-01  8.5889361238824846e-01  9.2897981007285191e-01  1.0000000000000000e+00  -2.0000000000000000e+00  2.4545847107725660e-01  2.7612745945272338e-01  2.9259875917925987e-01  3.0988968570053010e-01  3.2836299211347020e-01  3.4844716943268300e-01  3.7065744373080484e-01  3.9558147359150453e-01  4.2383429188421767e-01  4.5599107517139281e-01  4.9251337486305813e-01  5.3368547613930184e-01  5.7957633551551513e-01  6.3003440807299083e-01  6.8470971386570656e-01  7.4309100361507552e-01  8.0454706303078349e-01  8.6836477009884971e-01  9.3377993512298940e-01  1.0000000000000000e+00  -2.0000000000000000e+00  2.3830343970844975e-01  2.7551943615867136e-01  2.9508531359202039e-01  3.1553740076156472e-01  3.3714687060246318e-01  3.6028126002104843e-01  3.8537187909746645e-01  4.1288799040685231e-01  4.4330105538366515e-01  4.7703909014715040e-01  5.1443845577038660e-01  5.5570255589352469e-01  6.0087589082698722e-01  6.4983751904838027e-01  7.0231190548048827e-01  7.5789130222026879e-01  8.1606329194824190e-01  8.7623846985337717e-01  9.3777516032025643e-01  1.0000000000000000e+00  -2.0000000000000000e+00  2.3054888115885172e-01  2.7409147459461003e-01  2.9668565826858551e-01  3.2002773315124539e-01  3.4440582951376963e-01  3.7015912095158110e-01  3.9766082223116062e-01  4.2729755355477334e-01  4.5944284909644023e-01  4.9442577426315709e-01  5.3249880217781298e-01  5.7381040083742318e-01  6.1838715285052881e-01  6.6612787181305511e-01  7.1680908678759792e-01  7.7009900783727003e-01  8.2557633268853881e-01  8.8275065704616118e-01  9.4108223630465826e-01  1.0000000000000000e+00  -2.0000000000000000e+00  2.2279418847692248e-01  2.7214419500602638e-01  2.9753811173646616e-01  3.2348204406106185e-01  3.5028959334978865e-01  3.7828857204034594e-01  4.0781473532082158e-01  4.3919855248464024e-01  4.7274701318416523e-01  5.0872235563122481e-01  5.4732057784028543e-01  5.8865309242782549e-01  6.3273444792464995e-01  6.7947772856571376e-01  7.2869756201957814e-01  7.8011930965267495e-01  8.3339237392248200e-01  8.8810558933807116e-01  9.4380312785221554e-01  1.0000000000000000e+00  -2.0000000000000000e+00  2.1546253243515368e-01  2.6995339830003151e-01  2.9784054961019107e-01  3.2607273800674730e-01  3.5498192778397741e-01  3.8489083853919259e-01  4.1611099452713934e-01  4.4893490787880064e-01  4.8362429552435537e-01  5.2039605723729143e-01  5.5940806112427854e-01  6.0074694310894361e-01  6.4441981785453184e-01  6.9035103250557261e-01  7.3838412307232593e-01  7.8828829483136986e-01  8.3976826401064375e-01  8.9247619853142612e-01  9.4602468576613308e-01  1.0000000000000000e+00  -2.0000000000000000e+00  2.0887531875050566e-01  2.6776556943362434e-01  2.9779795039751927e-01  3.2798643057175908e-01  3.5867454124018089e-01  3.9018185980530784e-01  4.2280349636974235e-01  4.5680578897906815e-01  4.9241920379716353e-01  5.2982951666930722e-01  5.6916866631059371e-01  6.1050680102913890e-01  6.5384684787896175e-01  6.9912246052971894e-01  7.4619960293278320e-01  7.9488148258983482e-01  8.4491618875729646e-01  8.9600625501085718e-01  9.4781941668089087e-01  1.0000000000000000e+00  -2.0000000000000000e+00  2.0329194399458900e-01  2.6579394086063707e-01  2.9759925197450238e-01  3.2940049264258897e-01  3.6154794679967905e-01  3.9435856307211559e-01  4.2811534216745406e-01  4.6306554787056597e-01  4.9941721401592304e-01  5.3733413933218022e-01  5.7693028641965038e-01  6.1826474681805565e-01  6.6133831210245753e-01  7.0609235880155907e-01  7.5241034553925312e-01  8.0012184383789031e-01  8.4900875341785076e-01  8.9881321607381559e-01  9.4924672594657411e-01  1.0000000000000000e+00  -2.0000000000000000e+00  1.9892276183310953e-01  2.6421215663266973e-01  2.9740462399726431e-01  3.3046834122441504e-01  3.6375819024383088e-01  3.9758910351602139e-01  4.3223376135739244e-01  4.6792384631981854e-01  5.0484996506378244e-01  5.4315954022384072e-01  5.8295359321777174e-01  6.2428358772097636e-01  6.6714929491125363e-01  7.1149831703480659e-01  7.5722757658478013e-01  8.0418679380462221e-01  8.5218376500240045e-01  9.0099112991998087e-01  9.5035427103159020e-01  1.0000000000000000e+00  -2.0000000000000000e+00  1.9585101342781078e-01  2.6314131032717752e-01  2.9733874615747014e-01  3.3131005801397623e-01  3.6542736943520765e-01  4.0000589939074671e-01  4.3530675342627589e-01  4.7154611098753352e-01  5.0889925969554750e-01  5.4750046328162894e-01  5.8744095850661937e-01  6.2876671593682476e-01  6.7147696278677438e-01  7.1552403784163399e-01  7.6081484996043791e-01  8.0721398979341874e-01  8.5454838286714763e-01  9.0261326757211713e-01  9.5117922825980583e-01  1.0000000000000000e+00  -2.0000000000000000e+00  1.9368388361330244e-01  2.6266253395988498e-01  2.9749899229146221e-01  3.3200577523881214e-01  3.6663533009227711e-01  4.0170037118548180e-01  4.3744124196943074e-01  4.7405458450849214e-01  5.1170049944924534e-01  5.5050209470050915e-01  5.9054306159025183e-01  6.3186535473292993e-01  6.7446780245738425e-01  7.1830602158451784e-01  7.6329379562191868e-01  8.0930593254146765e-01  8.5618250910065452e-01  9.0373432924153518e-01  9.5174937443551644e-01  1.0000000000000000e+00  -2.0000000000000000e+00  1.9095657545405001e-01  2.6308398291581075e-01  2.9798891380968168e-01  3.3257872055753329e-01  3.6740780450960669e-01  4.0271901328947268e-01  4.3870325875747285e-01  4.7553048562775940e-01  5.1334605889243234e-01  5.5226435448091049e-01  5.9236383842094853e-01  6.3368383894725910e-01  6.7622287072531517e-01  7.1993845041713489e-01  7.6474837840125087e-01  8.1053343564987856e-01  8.5714139175246795e-01  9.0439216585785231e-01  9.5208394024072551e-01  1.0000000000000000e+00  -2.0000000000000000e+00  1.9021833137379418e-01  2.6628562160428570e-01  2.9879395947392040e-01  3.3291238867203266e-01  3.6769815409914380e-01  4.0306461870532950e-01  4.3912229414322884e-01  4.7601804035264050e-01  5.1388889601181442e-01  5.5284542590975216e-01  5.9296409866537314e-01  6.3428329190984345e-01  6.7680139107948245e-01  7.2047653095745601e-01  7.6522783191607158e-01  8.1093803990432900e-01  8.5745745640148685e-01  9.0460900219668117e-01  9.5219422066953319e-01  1.0000000000000000e+00  </DataArray> 
</PointData> 
</Piece>
</UnstructuredGrid>
</VTKFile>