<?xml version="1.0"?>
<VTKFile type="UnstructuredGrid"  version="0.1"  >
<UnstructuredGrid>
<Piece  NumberOfPoints="441" NumberOfCells="800">
<Points>
<DataArray  type="Float64"  NumberOfComponents="3"  format="ascii">0 0 0  0.05 0 0  0.1 0 0  0.15 0 0  0.2 0 0  0.25 0 0  0.3 0 0  0.35 0 0  0.4 0 0  0.45 0 0  0.5 0 0  0.55 0 0  0.6 0 0  0.65 0 0  0.7 0 0  0.75 0 0  0.8 0 0  0.85 0 0  0.9 0 0  0.95 0 0  1 0 0  0 0.05 0  0.05 0.05 0  0.1 0.05 0  0.15 0.05 0  0.2 0.05 0  0.25 0.05 0  0.3 0.05 0  0.35 0.05 0  0.4 0.05 0  0.45 0.05 0  0.5 0.05 0  0.55 0.05 0  0.6 0.05 0  0.65 0.05 0  0.7 0.05 0  0.75 0.05 0  0.8 0.05 0  0.85 0.05 0  0.9 0.05 0  0.95 0.05 0  1 0.05 0  0 0.1 0  0.05 0.1 0  0.1 0.1 0  0.15 0.1 0  0.2 0.1 0  0.25 0.1 0  0.3 0.1 0  0.35 0.1 0  0.4 0.1 0  0.45 0.1 0  0.5 0.1 0  0.55 0.1 0  0.6 0.1 0  0.65 0.1 0  0.7 0.1 0  0.75 0.1 0  0.8 0.1 0  0.85 0.1 0  0.9 0.1 0  0.95 0.1 0  1 0.1 0  0 0.15 0  0.05 0.15 0  0.1 0.15 0  0.15 0.15 0  0.2 0.15 0  0.25 0.15 0  0.3 0.15 0  0.35 0.15 0  0.4 0.15 0  0.45 0.15 0  0.5 0.15 0  0.55 0.15 0  0.6 0.15 0  0.65 0.15 0  0.7 0.15 0  0.75 0.15 0  0.8 0.15 0  0.85 0.15 0  0.9 0.15 0  0.95 0.15 0  1 0.15 0  0 0.2 0  0.05 0.2 0  0.1 0.2 0  0.15 0.2 0  0.2 0.2 0  0.25 0.2 0  0.3 0.2 0  0.35 0.2 0  0.4 0.2 0  0.45 0.2 0  0.5 0.2 0  0.55 0.2 0  0.6 0.2 0  0.65 0.2 0  0.7 0.2 0  0.75 0.2 0  0.8 0.2 0  0.85 0.2 0  0.9 0.2 0  0.95 0.2 0  1 0.2 0  0 0.25 0  0.05 0.25 0  0.1 0.25 0  0.15 0.25 0  0.2 0.25 0  0.25 0.25 0  0.3 0.25 0  0.35 0.25 0  0.4 0.25 0  0.45 0.25 0  0.5 0.25 0  0.55 0.25 0  0.6 0.25 0  0.65 0.25 0  0.7 0.25 0  0.75 0.25 0  0.8 0.25 0  0.85 0.25 0  0.9 0.25 0  0.95 0.25 0  1 0.25 0  0 0.3 0  0.05 0.3 0  0.1 0.3 0  0.15 0.3 0  0.2 0.3 0  0.25 0.3 0  0.3 0.3 0  0.35 0.3 0  0.4 0.3 0  0.45 0.3 0  0.5 0.3 0  0.55 0.3 0  0.6 0.3 0  0.65 0.3 0  0.7 0.3 0  0.75 0.3 0  0.8 0.3 0  0.85 0.3 0  0.9 0.3 0  0.95 0.3 0  1 0.3 0  0 0.35 0  0.05 0.35 0  0.1 0.35 0  0.15 0.35 0  0.2 0.35 0  0.25 0.35 0  0.3 0.35 0  0.35 0.35 0  0.4 0.35 0  0.45 0.35 0  0.5 0.35 0  0.55 0.35 0  0.6 0.35 0  0.65 0.35 0  0.7 0.35 0  0.75 0.35 0  0.8 0.35 0  0.85 0.35 0  0.9 0.35 0  0.95 0.35 0  1 0.35 0  0 0.4 0  0.05 0.4 0  0.1 0.4 0  0.15 0.4 0  0.2 0.4 0  0.25 0.4 0  0.3 0.4 0  0.35 0.4 0  0.4 0.4 0  0.45 0.4 0  0.5 0.4 0  0.55 0.4 0  0.6 0.4 0  0.65 0.4 0  0.7 0.4 0  0.75 0.4 0  0.8 0.4 0  0.85 0.4 0  0.9 0.4 0  0.95 0.4 0  1 0.4 0  0 0.45 0  0.05 0.45 0  0.1 0.45 0  0.15 0.45 0  0.2 0.45 0  0.25 0.45 0  0.3 0.45 0  0.35 0.45 0  0.4 0.45 0  0.45 0.45 0  0.5 0.45 0  0.55 0.45 0  0.6 0.45 0  0.65 0.45 0  0.7 0.45 0  0.75 0.45 0  0.8 0.45 0  0.85 0.45 0  0.9 0.45 0  0.95 0.45 0  1 0.45 0  0 0.5 0  0.05 0.5 0  0.1 0.5 0  0.15 0.5 0  0.2 0.5 0  0.25 0.5 0  0.3 0.5 0  0.35 0.5 0  0.4 0.5 0  0.45 0.5 0  0.5 0.5 0  0.55 0.5 0  0.6 0.5 0  0.65 0.5 0  0.7 0.5 0  0.75 0.5 0  0.8 0.5 0  0.85 0.5 0  0.9 0.5 0  0.95 0.5 0  1 0.5 0  0 0.55 0  0.05 0.55 0  0.1 0.55 0  0.15 0.55 0  0.2 0.55 0  0.25 0.55 0  0.3 0.55 0  0.35 0.55 0  0.4 0.55 0  0.45 0.55 0  0.5 0.55 0  0.55 0.55 0  0.6 0.55 0  0.65 0.55 0  0.7 0.55 0  0.75 0.55 0  0.8 0.55 0  0.85 0.55 0  0.9 0.55 0  0.95 0.55 0  1 0.55 0  0 0.6 0  0.05 0.6 0  0.1 0.6 0  0.15 0.6 0  0.2 0.6 0  0.25 0.6 0  0.3 0.6 0  0.35 0.6 0  0.4 0.6 0  0.45 0.6 0  0.5 0.6 0  0.55 0.6 0  0.6 0.6 0  0.65 0.6 0  0.7 0.6 0  0.75 0.6 0  0.8 0.6 0  0.85 0.6 0  0.9 0.6 0  0.95 0.6 0  1 0.6 0  0 0.65 0  0.05 0.65 0  0.1 0.65 0  0.15 0.65 0  0.2 0.65 0  0.25 0.65 0  0.3 0.65 0  0.35 0.65 0  0.4 0.65 0  0.45 0.65 0  0.5 0.65 0  0.55 0.65 0  0.6 0.65 0  0.65 0.65 0  0.7 0.65 0  0.75 0.65 0  0.8 0.65 0  0.85 0.65 0  0.9 0.65 0  0.95 0.65 0  1 0.65 0  0 0.7 0  0.05 0.7 0  0.1 0.7 0  0.15 0.7 0  0.2 0.7 0  0.25 0.7 0  0.3 0.7 0  0.35 0.7 0  0.4 0.7 0  0.45 0.7 0  0.5 0.7 0  0.55 0.7 0  0.6 0.7 0  0.65 0.7 0  0.7 0.7 0  0.75 0.7 0  0.8 0.7 0  0.85 0.7 0  0.9 0.7 0  0.95 0.7 0  1 0.7 0  0 0.75 0  0.05 0.75 0  0.1 0.75 0  0.15 0.75 0  0.2 0.75 0  0.25 0.75 0  0.3 0.75 0  0.35 0.75 0  0.4 0.75 0  0.45 0.75 0  0.5 0.75 0  0.55 0.75 0  0.6 0.75 0  0.65 0.75 0  0.7 0.75 0  0.75 0.75 0  0.8 0.75 0  0.85 0.75 0  0.9 0.75 0  0.95 0.75 0  1 0.75 0  0 0.8 0  0.05 0.8 0  0.1 0.8 0  0.15 0.8 0  0.2 0.8 0  0.25 0.8 0  0.3 0.8 0  0.35 0.8 0  0.4 0.8 0  0.45 0.8 0  0.5 0.8 0  0.55 0.8 0  0.6 0.8 0  0.65 0.8 0  0.7 0.8 0  0.75 0.8 0  0.8 0.8 0  0.85 0.8 0  0.9 0.8 0  0.95 0.8 0  1 0.8 0  0 0.85 0  0.05 0.85 0  0.1 0.85 0  0.15 0.85 0  0.2 0.85 0  0.25 0.85 0  0.3 0.85 0  0.35 0.85 0  0.4 0.85 0  0.45 0.85 0  0.5 0.85 0  0.55 0.85 0  0.6 0.85 0  0.65 0.85 0  0.7 0.85 0  0.75 0.85 0  0.8 0.85 0  0.85 0.85 0  0.9 0.85 0  0.95 0.85 0  1 0.85 0  0 0.9 0  0.05 0.9 0  0.1 0.9 0  0.15 0.9 0  0.2 0.9 0  0.25 0.9 0  0.3 0.9 0  0.35 0.9 0  0.4 0.9 0  0.45 0.9 0  0.5 0.9 0  0.55 0.9 0  0.6 0.9 0  0.65 0.9 0  0.7 0.9 0  0.75 0.9 0  0.8 0.9 0  0.85 0.9 0  0.9 0.9 0  0.95 0.9 0  1 0.9 0  0 0.95 0  0.05 0.95 0  0.1 0.95 0  0.15 0.95 0  0.2 0.95 0  0.25 0.95 0  0.3 0.95 0  0.35 0.95 0  0.4 0.95 0  0.45 0.95 0  0.5 0.95 0  0.55 0.95 0  0.6 0.95 0  0.65 0.95 0  0.7 0.95 0  0.75 0.95 0  0.8 0.95 0  0.85 0.95 0  0.9 0.95 0  0.95 0.95 0  1 0.95 0  0 1 0  0.05 1 0  0.1 1 0  0.15 1 0  0.2 1 0  0.25 1 0  0.3 1 0  0.35 1 0  0.4 1 0  0.45 1 0  0.5 1 0  0.55 1 0  0.6 1 0  0.65 1 0  0.7 1 0  0.75 1 0  0.8 1 0  0.85 1 0  0.9 1 0  0.95 1 0  1 1 0  </DataArray>
</Points>
<Cells>
[...]
<PointData  Scalars="f_6"> 
<DataArray  type="Float64"  Name="f_6"  format="ascii">-2.0000000000000000e+00  -1.8499999999999999e+00  -1.7000000000000000e+00  -1.5500000000000000e+00  -1.4000000000000001e+00  -1.2500000000000000e+00  -1.0999999999999999e+00  -9.5000000000000007e-01  -7.9999999999999993e-01  -6.5000000000000013e-01  -5.0000000000000000e-01  -3.4999999999999987e-01  -2.0000000000000007e-01  -4.9999999999999933e-02  9.9999999999999867e-02  2.5000000000000000e-01  4.0000000000000013e-01  5.4999999999999993e-01  7.0000000000000007e-01  8.4999999999999987e-01  1.0000000000000000e+00  -2.0000000000000000e+00  -1.5040807554346196e+00  -1.2543562115674254e+00  -1.0807879077612763e+00  -9.4366156155072689e-01  -8.2678668582697901e-01  -7.2128393709678185e-01  -6.2133221316748466e-01  -5.2264680105782280e-01  -4.2196520884513278e-01  -3.1699609496300601e-01  -2.0643652680963270e-01  -8.9706345158206136e-02  3.3773988543363935e-02  1.6383419661728715e-01  2.9886981907781174e-01  4.3674680772333574e-01  5.7635120136846574e-01  7.1703747043026911e-01  8.5836757327442748e-01  1.0000000000000000e+00  -2.0000000000000000e+00  -1.3158882680743060e+00  -1.0270511994655205e+00  -8.4400623315430401e-01  -7.1033174801336785e-01  -6.0446707379409448e-01  -5.1449344608567105e-01  -4.3265535963680996e-01  -3.5349646162392240e-01  -2.7305060801539960e-01  -1.8848085862909292e-01  -9.7859868443448877e-02  1.8390321525115153e-04  1.0698253177127182e-01  2.2252652197982858e-01  3.4489827197062412e-01  4.7176621044706507e-01  6.0162052732025784e-01  7.3343110707818271e-01  8.6643282266744093e-01  1.0000000000000000e+00  -2.0000000000000000e+00  -1.1872993589049090e+00  -8.7208075028851184e-01  -6.8411313484775249e-01  -5.5348959245123819e-01  -4.5449175178154938e-01  -3.7333593117116687e-01  -3.0138511017949121e-01  -2.3281602525878664e-01  -1.6353981766505937e-01  -9.0628680115509966e-02  -1.1939228826694495e-02  7.4302420728414434e-02  1.6972674361658530e-01  2.7438784037709074e-01  3.8643053637779101e-01  5.0379923477404243e-01  6.2493359038731744e-01  7.4863360789476296e-01  8.7393261031715297e-01  1.0000000000000000e+00  -2.0000000000000000e+00  -1.0930418503487715e+00  -7.5732096837542118e-01  -5.6624242734709695e-01  -4.3856031757477959e-01  -3.4473740839533779e-01  -2.6954222468793326e-01  -2.0388347814699467e-01  -1.4189005329942539e-01  -7.9555668891555770e-02  -1.4015180327341151e-02  5.6919323918192141e-02  1.3520072419728557e-01  2.2250103577629712e-01  3.1886755953415824e-01  4.2263679838940676e-01  5.3206660188399590e-01  6.4568099156020697e-01  7.6223712379639774e-01  8.8066401070640865e-01  1.0000000000000000e+00  -2.0000000000000000e+00  -1.0225492586901808e+00  -6.7064586712911811e-01  -4.7726716256550139e-01  -3.5207475574426411e-01  -2.6219544182513616e-01  -1.9123290158455336e-01  -1.2983143163565272e-01  -7.2184105332775333e-02  -1.4426745384693089e-02  4.6197684896419053e-02  1.1185288113593858e-01  1.8455929001094931e-01  2.6592031345562950e-01  3.5594456359383847e-01  4.5318249576168168e-01  5.5614938281232762e-01  6.6348665017311625e-01  7.7396988502421293e-01  8.8648630871208345e-01  1.0000000000000000e+00  -2.0000000000000000e+00  -9.7011843139986287e-01  -6.0572648284237196e-01  -4.1049816403741979e-01  -2.8717142105522769e-01  -2.0018305172694828e-01  -1.3222206972413536e-01  -7.3756043728078216e-02  -1.9060948661561404e-02  3.5590599424959034e-02  9.2848869466292228e-02  1.5483203512945518e-01  2.2357515744374165e-01  3.0058057639282271e-01  3.8580788562388424e-01  4.7799923825115387e-01  5.7586178343051653e-01  6.7814634129571760e-01  7.8366945741525462e-01  8.9131133911771121e-01  1.0000000000000000e+00  -2.0000000000000000e+00  -9.3230203312887139e-01  -5.5867586139353265e-01  -3.6194189333958210e-01  -2.3985761037910128e-01  -1.5485926583945733e-01  -8.8953945870066067e-02  -3.2480861921109293e-02  2.0217944844346331e-02  7.2763734926342929e-02  1.2772126029289288e-01  1.8716466955232308e-01  2.5312008688592036e-01  3.2699710005204680e-01  4.0870716425772174e-01  4.9714478818853297e-01  5.9115217136286702e-01  6.8956747416398201e-01  7.9125026422337652e-01  8.9508959034350566e-01  1.0000000000000000e+00  -2.0000000000000000e+00  -9.0696622527946724e-01  -5.2699371494070957e-01  -3.2906865948357183e-01  -2.0767575762827145e-01  -1.2390499001245445e-01  -5.9294966288369305e-02  -4.0909006600619397e-03  4.7325545079628724e-02  9.8506784606235395e-02  1.5196006270476201e-01  2.0972717399932653e-01  2.7381867735529358e-01  3.4557847364436739e-01  4.2487888316642286e-01  5.1072057888238909e-01  6.0203463966843662e-01  6.9772111977396634e-01  7.9667453497076313e-01  8.9779675803293479e-01  1.0000000000000000e+00  -2.0000000000000000e+00  -8.9286859964516907e-01  -5.0915439802747753e-01  -3.1032890509603522e-01  -1.8914245759839038e-01  -1.0593817277120406e-01  -4.1979644786953360e-02  1.2553705180977162e-02  6.3268021628030413e-02  1.1368401261453727e-01  1.6628078223878198e-01  2.2308354757017859e-01  2.8609274400727580e-01  3.5661923400370649e-01  4.3450931588121361e-01  5.1882400450616406e-01  6.0854468865452427e-01  7.0260783029268348e-01  7.9992999785277530e-01  8.9942290681747117e-01  1.0000000000000000e+00  -2.0000000000000000e+00  -8.8944024236430397e-01  -5.0441200643666484e-01  -3.0493431404259469e-01  -1.8348861283221676e-01  -1.0023465061077988e-01  -3.6339550645257859e-02  1.8059926979831838e-02  6.8586084088514104e-02  1.1876493499620498e-01  1.7107741689337649e-01  2.2755005044395427e-01  2.9018537724953936e-01  3.6029640248196926e-01  4.3771514184856114e-01  5.2152143460652933e-01  6.1071228015081236e-01  7.0423551488946745e-01  8.0101471933018376e-01  8.9996487138417380e-01  1.0000000000000000e+00  -2.0000000000000000e+00  -8.9666342336058702e-01  -5.1269159582833312e-01  -3.1274549733957835e-01  -1.9053255843718933e-01  -1.0659356235302189e-01  -4.2172680651383333e-02  1.2618830250957088e-02  6.3452422790425692e-02  1.1389957861343515e-01  1.6647522157891895e-01  2.2322679667705544e-01  2.8617270558620106e-01  3.5666585682606972e-01  4.3453341442453236e-01  5.1883431192057994e-01  6.0854748245272816e-01  7.0260722978419110e-01  7.9992849319431858e-01  8.9942185938903951e-01  1.0000000000000000e+00  -2.0000000000000000e+00  -9.1499586751280504e-01  -5.3451590230114521e-01  -3.3420768554852354e-01  -2.1062126854201990e-01  -1.2528332345337603e-01  -5.9695408015059209e-02  -3.9539980219469835e-03  4.7703670317454476e-02  9.8942021114722889e-02  1.5234646778033320e-01  2.1000671577481159e-01  2.7396724642229064e-01  3.4566090481157580e-01  4.2491834710291931e-01  5.1073491619853040e-01  6.0203610795532914e-01  6.9771742860025121e-01  7.9667016427386061e-01  8.9779407297766689e-01  1.0000000000000000e+00  -2.0000000000000000e+00  -9.4530435022258952e-01  -5.7093716839154007e-01  -3.7031093554687261e-01  -2.4461897976545521e-01  -1.5705010080602391e-01  -8.9561722409999836e-02  -3.2242031871080552e-02  2.0816645828112552e-02  7.3429275003523947e-02  1.2829380369834742e-01  1.8756447482592345e-01  2.5331400590367809e-01  3.2709216889502379e-01  4.0874415297703898e-01  4.9715089781529287e-01  5.9114460456980633e-01  6.8955621238762466e-01  7.9124066232320556e-01  8.9508426824776732e-01  1.0000000000000000e+00  -2.0000000000000000e+00  -9.8875994815873347e-01  -6.2344846196831216e-01  -4.2257246490383465e-01  -2.9395363144412850e-01  -2.0320480473279504e-01  -1.3296731075881590e-01  -7.3331445150215960e-02  -1.8184132875363409e-02  3.6505948134357404e-02  9.3594955586369627e-02  1.5532133558551289e-01  2.2377745952120534e-01  3.0064961188780215e-01  3.8581519809492049e-01  4.7797991751579594e-01  5.7583520012097922e-01  6.7812215405723586e-01  7.8365200438356941e-01  8.9130233769019818e-01  1.0000000000000000e+00  -2.0000000000000000e+00  -1.0466353111697555e+00  -6.9387046569616595e-01  -4.9307775055456415e-01  -3.6077822374513907e-01  -2.6585127970973665e-01  -1.9189899124266538e-01  -1.2904825246446791e-01  -7.0930623002513432e-02  -1.3236585531458935e-02  4.7088980641986952e-02  1.1237660339884029e-01  1.8471272121911250e-01  2.6590676388712986e-01  3.5588710999904488e-01  4.5311837403199118e-01  5.5609412434107852e-01  6.6344519933676993e-01  7.7394286346363794e-01  8.8647307812945630e-01  1.0000000000000000e+00  -2.0000000000000000e+00  -1.1200153225383578e+00  -7.8432144049495056e-01  -5.8472787548143601e-01  -4.4841002474622510e-01  -3.4841658189524310e-01  -2.6967553942724082e-01  -2.0245416033592417e-01  -1.4012756136338525e-01  -7.8079668421902088e-02  -1.3041987437651526e-02  5.7386023513796042e-02  1.3522145929929161e-01  2.2233043550778089e-01  3.1870810398213806e-01  4.2251234427204548e-01  5.3197772387457365e-01  6.4562165548512707e-01  7.6220117200475590e-01  8.8064711136398999e-01  1.0000000000000000e+00  -2.0000000000000000e+00  -1.2098817068429821e+00  -8.9778871023311557e-01  -7.0217767420586874e-01  -5.6250199750264351e-01  -4.5690627226979696e-01  -3.7215525923331000e-01  -2.9891471810366271e-01  -2.3042712393475867e-01  -1.6183280271968267e-01  -8.9707127258909058e-02  -1.1670816782268473e-02  7.4085465363898526e-02  1.6931854488528636e-01  2.7410252614968150e-01  3.8624517519947954e-01  5.0368277140004358e-01  6.2486252672440967e-01  7.4859305770626849e-01  8.7391419532174885e-01  1.0000000000000000e+00  -2.0000000000000000e+00  -1.3196510603266292e+00  -1.0413205712414981e+00  -8.5522763623770071e-01  -7.1451107165647709e-01  -6.0327391788329054e-01  -5.1080930466110652e-01  -4.2871991338175991e-01  -3.5050406728433831e-01  -2.7133302706832185e-01  -1.8785823577633110e-01  -9.7971353645391626e-02  -3.5374185507237236e-04  1.0630230101575125e-01  2.2213828053182222e-01  3.4468305897614737e-01  4.7164565980171091e-01  6.0155262230619977e-01  7.3339433677415899e-01  8.6641661221673716e-01  1.0000000000000000e+00  -2.0000000000000000e+00  -1.4708635305570308e+00  -1.2429970411577229e+00  -1.0748282824683759e+00  -9.3630072046079693e-01  -8.1829067811699407e-01  -7.1356976170611197e-01  -6.1572819913284527e-01  -5.1944846333411465e-01  -4.2072009744617644e-01  -3.1697687480534242e-01  -2.0700099979783290e-01  -9.0455625193370096e-02  3.3010002327648398e-02  1.6346523598570939e-01  2.9870312037157731e-01  4.3666418652445238e-01  5.7630796592452060e-01  7.1701505486743045e-01  8.5835791677104178e-01  1.0000000000000000e+00  -2.0000000000000000e+00  -1.8499999999999999e+00  -1.7000000000000000e+00  -1.5500000000000000e+00  -1.4000000000000001e+00  -1.2500000000000000e+00  -1.0999999999999999e+00  -9.5000000000000018e-01  -7.9999999999999993e-01  -6.5000000000000013e-01  -5.0000000000000000e-01  -3.4999999999999987e-01  -2.0000000000000007e-01  -4.9999999999999933e-02  9.9999999999999867e-02  2.5000000000000000e-01  4.0000000000000013e-01  5.4999999999999993e-01  7.0000000000000007e-01  8.4999999999999987e-01  1.0000000000000000e+00  </DataArray> 
</PointData> 
</Piece>
</UnstructuredGrid>
</VTKFile>