<?xml version="1.0"?>
<VTKFile type="UnstructuredGrid"  version="0.1"  >
<UnstructuredGrid>
<Piece  NumberOfPoints="441" NumberOfCells="800">
<Points>
<DataArray  type="Float64"  NumberOfComponents="3"  format="ascii">0 0 0  0.05 0 0  0.1 0 0  0.15 0 0  0.2 0 0  0.25 0 0  0.3 0 0  0.35 0 0  0.4 0 0  0.45 0 0  0.5 0 0  0.55 0 0  0.6 0 0  0.65 0 0  0.7 0 0  0.75 0 0  0.8 0 0  0.85 0 0  0.9 0 0  0.95 0 0  1 0 0  0 0.05 0  0.05 0.05 0  0.1 0.05 0  0.15 0.05 0  0.2 0.05 0  0.25 0.05 0  0.3 0.05 0  0.35 0.05 0  0.4 0.05 0  0.45 0.05 0  0.5 0.05 0  0.55 0.05 0  0.6 0.05 0  0.65 0.05 0  0.7 0.05 0  0.75 0.05 0  0.8 0.05 0  0.85 0.05 0  0.9 0.05 0  0.95 0.05 0  1 0.05 0  0 0.1 0  0.05 0.1 0  0.1 0.1 0  0.15 0.1 0  0.2 0.1 0  0.25 0.1 0  0.3 0.1 0  0.35 0.1 0  0.4 0.1 0  0.45 0.1 0  0.5 0.1 0  0.55 0.1 0  0.6 0.1 0  0.65 0.1 0  0.7 0.1 0  0.75 0.1 0  0.8 0.1 0  0.85 0.1 0  0.9 0.1 0  0.95 0.1 0  1 0.1 0  0 0.15 0  0.05 0.15 0  0.1 0.15 0  0.15 0.15 0  0.2 0.15 0  0.25 0.15 0  0.3 0.15 0  0.35 0.15 0  0.4 0.15 0  0.45 0.15 0  0.5 0.15 0  0.55 0.15 0  0.6 0.15 0  0.65 0.15 0  0.7 0.15 0  0.75 0.15 0  0.8 0.15 0  0.85 0.15 0  0.9 0.15 0  0.95 0.15 0  1 0.15 0  0 0.2 0  0.05 0.2 0  0.1 0.2 0  0.15 0.2 0  0.2 0.2 0  0.25 0.2 0  0.3 0.2 0  0.35 0.2 0  0.4 0.2 0  0.45 0.2 0  0.5 0.2 0  0.55 0.2 0  0.6 0.2 0  0.65 0.2 0  0.7 0.2 0  0.75 0.2 0  0.8 0.2 0  0.85 0.2 0  0.9 0.2 0  0.95 0.2 0  1 0.2 0  0 0.25 0  0.05 0.25 0  0.1 0.25 0  0.15 0.25 0  0.2 0.25 0  0.25 0.25 0  0.3 0.25 0  0.35 0.25 0  0.4 0.25 0  0.45 0.25 0  0.5 0.25 0  0.55 0.25 0  0.6 0.25 0  0.65 0.25 0  0.7 0.25 0  0.75 0.25 0  0.8 0.25 0  0.85 0.25 0  0.9 0.25 0  0.95 0.25 0  1 0.25 0  0 0.3 0  0.05 0.3 0  0.1 0.3 0  0.15 0.3 0  0.2 0.3 0  0.25 0.3 0  0.3 0.3 0  0.35 0.3 0  0.4 0.3 0  0.45 0.3 0  0.5 0.3 0  0.55 0.3 0  0.6 0.3 0  0.65 0.3 0  0.7 0.3 0  0.75 0.3 0  0.8 0.3 0  0.85 0.3 0  0.9 0.3 0  0.95 0.3 0  1 0.3 0  0 0.35 0  0.05 0.35 0  0.1 0.35 0  0.15 0.35 0  0.2 0.35 0  0.25 0.35 0  0.3 0.35 0  0.35 0.35 0  0.4 0.35 0  0.45 0.35 0  0.5 0.35 0  0.55 0.35 0  0.6 0.35 0  0.65 0.35 0  0.7 0.35 0  0.75 0.35 0  0.8 0.35 0  0.85 0.35 0  0.9 0.35 0  0.95 0.35 0  1 0.35 0  0 0.4 0  0.05 0.4 0  0.1 0.4 0  0.15 0.4 0  0.2 0.4 0  0.25 0.4 0  0.3 0.4 0  0.35 0.4 0  0.4 0.4 0  0.45 0.4 0  0.5 0.4 0  0.55 0.4 0  0.6 0.4 0  0.65 0.4 0  0.7 0.4 0  0.75 0.4 0  0.8 0.4 0  0.85 0.4 0  0.9 0.4 0  0.95 0.4 0  1 0.4 0  0 0.45 0  0.05 0.45 0  0.1 0.45 0  0.15 0.45 0  0.2 0.45 0  0.25 0.45 0  0.3 0.45 0  0.35 0.45 0  0.4 0.45 0  0.45 0.45 0  0.5 0.45 0  0.55 0.45 0  0.6 0.45 0  0.65 0.45 0  0.7 0.45 0  0.75 0.45 0  0.8 0.45 0  0.85 0.45 0  0.9 0.45 0  0.95 0.45 0  1 0.45 0  0 0.5 0  0.05 0.5 0  0.1 0.5 0  0.15 0.5 0  0.2 0.5 0  0.25 0.5 0  0.3 0.5 0  0.35 0.5 0  0.4 0.5 0  0.45 0.5 0  0.5 0.5 0  0.55 0.5 0  0.6 0.5 0  0.65 0.5 0  0.7 0.5 0  0.75 0.5 0  0.8 0.5 0  0.85 0.5 0  0.9 0.5 0  0.95 0.5 0  1 0.5 0  0 0.55 0  0.05 0.55 0  0.1 0.55 0  0.15 0.55 0  0.2 0.55 0  0.25 0.55 0  0.3 0.55 0  0.35 0.55 0  0.4 0.55 0  0.45 0.55 0  0.5 0.55 0  0.55 0.55 0  0.6 0.55 0  0.65 0.55 0  0.7 0.55 0  0.75 0.55 0  0.8 0.55 0  0.85 0.55 0  0.9 0.55 0  0.95 0.55 0  1 0.55 0  0 0.6 0  0.05 0.6 0  0.1 0.6 0  0.15 0.6 0  0.2 0.6 0  0.25 0.6 0  0.3 0.6 0  0.35 0.6 0  0.4 0.6 0  0.45 0.6 0  0.5 0.6 0  0.55 0.6 0  0.6 0.6 0  0.65 0.6 0  0.7 0.6 0  0.75 0.6 0  0.8 0.6 0  0.85 0.6 0  0.9 0.6 0  0.95 0.6 0  1 0.6 0  0 0.65 0  0.05 0.65 0  0.1 0.65 0  0.15 0.65 0  0.2 0.65 0  0.25 0.65 0  0.3 0.65 0  0.35 0.65 0  0.4 0.65 0  0.45 0.65 0  0.5 0.65 0  0.55 0.65 0  0.6 0.65 0  0.65 0.65 0  0.7 0.65 0  0.75 0.65 0  0.8 0.65 0  0.85 0.65 0  0.9 0.65 0  0.95 0.65 0  1 0.65 0  0 0.7 0  0.05 0.7 0  0.1 0.7 0  0.15 0.7 0  0.2 0.7 0  0.25 0.7 0  0.3 0.7 0  0.35 0.7 0  0.4 0.7 0  0.45 0.7 0  0.5 0.7 0  0.55 0.7 0  0.6 0.7 0  0.65 0.7 0  0.7 0.7 0  0.75 0.7 0  0.8 0.7 0  0.85 0.7 0  0.9 0.7 0  0.95 0.7 0  1 0.7 0  0 0.75 0  0.05 0.75 0  0.1 0.75 0  0.15 0.75 0  0.2 0.75 0  0.25 0.75 0  0.3 0.75 0  0.35 0.75 0  0.4 0.75 0  0.45 0.75 0  0.5 0.75 0  0.55 0.75 0  0.6 0.75 0  0.65 0.75 0  0.7 0.75 0  0.75 0.75 0  0.8 0.75 0  0.85 0.75 0  0.9 0.75 0  0.95 0.75 0  1 0.75 0  0 0.8 0  0.05 0.8 0  0.1 0.8 0  0.15 0.8 0  0.2 0.8 0  0.25 0.8 0  0.3 0.8 0  0.35 0.8 0  0.4 0.8 0  0.45 0.8 0  0.5 0.8 0  0.55 0.8 0  0.6 0.8 0  0.65 0.8 0  0.7 0.8 0  0.75 0.8 0  0.8 0.8 0  0.85 0.8 0  0.9 0.8 0  0.95 0.8 0  1 0.8 0  0 0.85 0  0.05 0.85 0  0.1 0.85 0  0.15 0.85 0  0.2 0.85 0  0.25 0.85 0  0.3 0.85 0  0.35 0.85 0  0.4 0.85 0  0.45 0.85 0  0.5 0.85 0  0.55 0.85 0  0.6 0.85 0  0.65 0.85 0  0.7 0.85 0  0.75 0.85 0  0.8 0.85 0  0.85 0.85 0  0.9 0.85 0  0.95 0.85 0  1 0.85 0  0 0.9 0  0.05 0.9 0  0.1 0.9 0  0.15 0.9 0  0.2 0.9 0  0.25 0.9 0  0.3 0.9 0  0.35 0.9 0  0.4 0.9 0  0.45 0.9 0  0.5 0.9 0  0.55 0.9 0  0.6 0.9 0  0.65 0.9 0  0.7 0.9 0  0.75 0.9 0  0.8 0.9 0  0.85 0.9 0  0.9 0.9 0  0.95 0.9 0  1 0.9 0  0 0.95 0  0.05 0.95 0  0.1 0.95 0  0.15 0.95 0  0.2 0.95 0  0.25 0.95 0  0.3 0.95 0  0.35 0.95 0  0.4 0.95 0  0.45 0.95 0  0.5 0.95 0  0.55 0.95 0  0.6 0.95 0  0.65 0.95 0  0.7 0.95 0  0.75 0.95 0  0.8 0.95 0  0.85 0.95 0  0.9 0.95 0  0.95 0.95 0  1 0.95 0  0 1 0  0.05 1 0  0.1 1 0  0.15 1 0  0.2 1 0  0.25 1 0  0.3 1 0  0.35 1 0  0.4 1 0  0.45 1 0  0.5 1 0  0.55 1 0  0.6 1 0  0.65 1 0  0.7 1 0  0.75 1 0  0.8 1 0  0.85 1 0  0.9 1 0  0.95 1 0  1 1 0  </DataArray>
</Points>
<Cells>
[...]
<PointData  Scalars="f_6"> 
<DataArray  type="Float64"  Name="f_6"  format="ascii">-2.0000000000000000e+00  -1.8499999999999999e+00  -1.7000000000000000e+00  -1.5500000000000000e+00  -1.4000000000000001e+00  -1.2500000000000000e+00  -1.0999999999999999e+00  -9.5000000000000007e-01  -7.9999999999999993e-01  -6.5000000000000013e-01  -5.0000000000000000e-01  -3.4999999999999987e-01  -2.0000000000000007e-01  -4.9999999999999933e-02  9.9999999999999867e-02  2.5000000000000000e-01  4.0000000000000013e-01  5.4999999999999993e-01  7.0000000000000007e-01  8.4999999999999987e-01  1.0000000000000000e+00  -2.0000000000000000e+00  -1.7512855563223246e+00  -1.6187944013338242e+00  -1.4955264514727480e+00  -1.3597572551771866e+00  -1.2186580531036459e+00  -1.0751013424992348e+00  -9.3067674271799827e-01  -7.8715278797739796e-01  -6.4491067033568683e-01  -4.8973957724654543e-01  -3.2487967640367171e-01  -1.7654068185079505e-01  -3.2184838007813230e-02  1.1276383650299684e-01  2.5700771560633517e-01  4.0438549462710927e-01  5.5285395840383644e-01  7.0175484665939358e-01  8.5084142166100629e-01  1.0000000000000000e+00  -1.9999999999999998e+00  -1.7470873902336395e+00  -1.6063383616156559e+00  -1.4787070037523844e+00  -1.3440772500201799e+00  -1.2050350525218803e+00  -1.0633765661475603e+00  -9.2027001049000401e-01  -7.7644120472178069e-01  -6.3156382806058786e-01  -4.8201514191671857e-01  -3.2526093447658311e-01  -1.7513887712593423e-01  -3.0153373271755816e-02  1.1524602238401439e-01  2.6088153129523461e-01  4.0768030449826470e-01  5.5527549232884332e-01  7.0332400657273086e-01  8.5161083998463227e-01  1.0000000000000000e+00  -2.0000000000000000e+00  -1.7375029135482039e+00  -1.6025042916813734e+00  -1.4688859519009527e+00  -1.3328096886292695e+00  -1.1940283408161343e+00  -1.0530998590791227e+00  -9.1058552837267703e-01  -7.6677819235913336e-01  -6.2142295244386336e-01  -4.7357783926425157e-01  -3.2346519211345698e-01  -1.7501104287371200e-01  -2.8535800337290477e-02  1.1749209500958227e-01  2.6359208269232431e-01  4.1017869974187132e-01  5.5724369984054190e-01  7.0465484731805428e-01  8.5227793170479238e-01  1.0000000000000000e+00  -2.0000000000000000e+00  -1.7324177675698369e+00  -1.5972899396606823e+00  -1.4615228235407836e+00  -1.3242472117798119e+00  -1.1851687630342636e+00  -1.0444090009801190e+00  -9.0219405156244770e-01  -7.5866308389821269e-01  -6.1377195009148000e-01  -4.6740807058296724e-01  -3.2001095183928163e-01  -1.7290430191816591e-01  -2.6470880213276711e-02  1.1966607529928103e-01  2.6581600472260902e-01  4.1219871193635432e-01  5.5886575997339905e-01  7.0577375115415186e-01  8.5284603951648352e-01  1.0000000000000000e+00  -1.9999999999999998e+00  -1.7289359000450000e+00  -1.5927148758507363e+00  -1.4556681908216877e+00  -1.3174875719149328e+00  -1.1779904985609886e+00  -1.0371733302446426e+00  -8.9511859299878205e-01  -7.5190814157979025e-01  -6.0759369344087710e-01  -4.6227154113685565e-01  -3.1626624274253662e-01  -1.7012433274639308e-01  -2.4109493896931802e-02  1.2182708167820991e-01  2.6780714896247648e-01  4.1393438330753762e-01  5.6024687696254827e-01  7.0672835780867049e-01  8.5333247520699085e-01  1.0000000000000000e+00  -1.9999999999999998e+00  -1.7262800166784384e+00  -1.5889654728755767e+00  -1.4509474919802969e+00  -1.3120443864972449e+00  -1.1721323290501144e+00  -1.0311752284386810e+00  -8.8919884860824761e-01  -7.4625719598128748e-01  -6.0242314095538285e-01  -4.5781815778104201e-01  -3.1265814524761665e-01  -1.6721729242793765e-01  -2.1669844306267654e-02  1.2394459634801416e-01  2.6965112614154951e-01  4.1548479536877159e-01  5.6145900676058591e-01  7.0756032791099110e-01  8.5375550350280949e-01  1.0000000000000000e+00  -2.0000000000000000e+00  -1.7241688035691285e+00  -1.5859195069928338e+00  -1.4471119177266791e+00  -1.3076101530436366e+00  -1.1673192027035424e+00  -1.0261964058517210e+00  -8.8424437701423997e-01  -7.4149865278172966e-01  -5.9802351661832454e-01  -4.5391980378431290e-01  -3.0933088803895042e-01  -1.6441684741147300e-01  -1.9297187248215619e-02  1.2597002187856521e-01  2.7136796388693568e-01  4.1689466526541347e-01  5.6254402680003290e-01  7.0829844357189886e-01  8.5412921089325666e-01  1.0000000000000000e+00  -2.0000000000000000e+00  -1.7224572302123535e+00  -1.5834318337999531e+00  -1.4439705188899490e+00  -1.3039651052470800e+00  -1.1633379228686980e+00  -1.0220468152504212e+00  -8.8008360081526171e-01  -7.3746952151306644e-01  -5.9425246895187278e-01  -4.5050665269893497e-01  -3.0632875571239926e-01  -1.6182202193078790e-01  -1.7072079153687355e-02  1.2786471452752687e-01  2.7295604226221476e-01  4.1818187500591325e-01  5.6352399160223354e-01  7.0896020868331544e-01  8.5446289649831797e-01  1.0000000000000000e+00  -1.9999999999999998e+00  -1.7210496675385265e+00  -1.5813800791046773e+00  -1.4413732187860837e+00  -1.3009418261860373e+00  -1.1600205682737492e+00  -1.0185693314660043e+00  -8.7657368948331849e-01  -7.3404336350340182e-01  -5.9101018497716540e-01  -4.4752558234715478e-01  -3.0365546018092410e-01  -1.5947040544559168e-01  -1.5033821963273054e-02  1.2960487312301522e-01  2.7440961562848276e-01  4.1935280089379123e-01  5.6440985591967296e-01  7.0955550306081117e-01  8.5476216641670011e-01  1.0000000000000000e+00  -2.0000000000000000e+00  -1.7198746043663955e+00  -1.5796655962941470e+00  -1.4392004509636707e+00  -1.2984084124372368e+00  -1.1572331925742565e+00  -1.0156362528565284e+00  -8.7359846214860604e-01  -7.3112005804005742e-01  -5.8821932510623209e-01  -4.4493003153159455e-01  -3.0129709721855097e-01  -1.5737031770738158e-01  -1.3197676376828721e-02  1.3117898429932465e-01  2.7572474623490983e-01  4.2040985702109579e-01  5.6520712812185636e-01  7.1008978122355570e-01  8.5503026610767174e-01  1.0000000000000000e+00  -1.9999999999999998e+00  -1.7188743030153351e+00  -1.5782072507418463e+00  -1.4373545763372166e+00  -1.2962581800249831e+00  -1.1548675367295118e+00  -1.0131440252372472e+00  -8.7106384821452032e-01  -7.2861908140199017e-01  -5.8581702587611117e-01  -4.4267812145444030e-01  -2.9923257945430382e-01  -1.5551609178855491e-01  -1.1565550135985167e-02  1.3258399421620259e-01  2.7690052799073639e-01  4.2135475283382562e-01  5.6591901832310121e-01  7.1056622760388333e-01  8.5526911679043127e-01  1.0000000000000000e+00  -2.0000000000000000e+00  -1.7179982328713570e+00  -1.5769345273206858e+00  -1.4357524236183663e+00  -1.2944021945959683e+00  -1.1528347490815589e+00  -1.0110084631484277e+00  -8.6889382407023852e-01  -7.2647539347727152e-01  -5.8375157554178148e-01  -4.4073284895575188e-01  -2.9743900735566936e-01  -1.5389591985654855e-01  -1.0132426594759924e-02  1.3382201471073477e-01  2.7793861867800740e-01  4.2218960800036903e-01  5.6654796473283986e-01  7.1098699407844579e-01  8.5547997345016957e-01  1.0000000000000000e+00  -1.9999999999999998e+00  -1.7171967332943745e+00  -1.5757802020511742e+00  -1.4343183962195947e+00  -1.2927634256589655e+00  -1.1510608018523276e+00  -1.0091612542046671e+00  -8.6702759144073427e-01  -7.2463709289507627e-01  -5.8198103385799149e-01  -4.3906269147111665e-01  -2.9589468115607315e-01  -1.5249615368720970e-01  -8.8902510972410365e-03  1.3489787254348920e-01  2.7884232401018938e-01  4.2291709575680309e-01  5.6709623852944469e-01  7.1135381052689051e-01  8.5566378293180168e-01  1.0000000000000000e+00  -2.0000000000000000e+00  -1.7164122931061965e+00  -1.5746711513700415e+00  -1.4329775335498725e+00  -1.2912723099679722e+00  -1.1494837784641194e+00  -1.0075481603771779e+00  -8.6541819459295544e-01  -7.2306435280430803e-01  -5.8047277552399223e-01  -4.3764220191465009e-01  -2.9458087211029726e-01  -1.5130376263897591e-01  -7.8302966504839901e-03  1.3581740255027405e-01  2.7961570906245786e-01  4.2354021248720908e-01  5.6756608310124501e-01  7.1166822656786988e-01  8.5582134775014718e-01  1.0000000000000000e+00  -2.0000000000000000e+00  -1.7155637785945455e+00  -1.5735145767729244e+00  -1.4316482766418810e+00  -1.2898645021989315e+00  -1.1480538416590005e+00  -1.0061294142469694e+00  -8.6403267374960135e-01  -7.2172934820520840e-01  -5.7920351351901855e-01  -4.3645246855319419e-01  -2.9348284273149039e-01  -1.5030772810791238e-01  -6.9445754159933558e-03  1.3658632524563349e-01  2.8026289720215902e-01  4.2406196202833019e-01  5.6795965482045685e-01  7.1193166489319704e-01  8.5595338150091760e-01  1.0000000000000000e+00  -1.9999999999999998e+00  -1.7145117508349490e+00  -1.5721751004852307e+00  -1.4302364940457954e+00  -1.2884835805268720e+00  -1.1467376717259814e+00  -1.0048829812020983e+00  -8.6285373795327136e-01  -7.2061685274790499e-01  -5.7815946179367761e-01  -4.3548131604761792e-01  -2.9259030215455811e-01  -1.4949973164518948e-01  -6.2266021512108836e-03  1.3720957664609465e-01  2.8078759247221446e-01  4.2448508360349552e-01  5.6827890925905566e-01  7.1214539668354326e-01  8.5606051336032640e-01  1.0000000000000000e+00  -2.0000000000000000e+00  -1.7129699286382132e+00  -1.5704375802872534e+00  -1.4286390185291982e+00  -1.2870956541367804e+00  -1.1455302835159542e+00  -1.0038111008821708e+00  -8.6188244411348069e-01  -7.1972486303946293e-01  -5.7733616486016870e-01  -4.3472303168904175e-01  -2.9189731819393500e-01  -1.4887429416707623e-01  -5.6716781897555753e-03  1.3769099101774174e-01  2.8119281243710820e-01  4.2481187065438197e-01  5.6852550192872697e-01  7.1231049922159428e-01  8.5614327525684575e-01  1.0000000000000000e+00  -1.9999999999999998e+00  -1.7102480524933377e+00  -1.5679662734963724e+00  -1.4267863456469629e+00  -1.2857297339750970e+00  -1.1444767073188835e+00  -1.0029486946971509e+00  -8.6114007457901764e-01  -7.1906399043629832e-01  -5.7673730291849234e-01  -4.3417732765444611e-01  -2.9140164476506408e-01  -1.4842844863942464e-01  -5.2768074584772116e-03  1.3803325317751994e-01  2.8148079560409456e-01  4.2504408464819721e-01  5.6870072857987630e-01  7.1242782301726137e-01  8.5620208844546275e-01  1.0000000000000000e+00  -2.0000000000000000e+00  -1.7044123074796944e+00  -1.5643931155579356e+00  -1.4248103565871835e+00  -1.2845602287977622e+00  -1.1436981170873319e+00  -1.0023668960085310e+00  -8.6066516906914081e-01  -7.1865372120822102e-01  -5.7637172872305575e-01  -4.3384733124518632e-01  -2.9110348457245094e-01  -1.4816104816708078e-01  -5.0403561822488603e-03  1.3823803354672104e-01  2.8165303215355275e-01  4.2518294375443572e-01  5.6880550472532054e-01  7.1249797582211183e-01  8.5623725550774410e-01  1.0000000000000000e+00  -2.0000000000000000e+00  -1.6892461312120299e+00  -1.5603835246684936e+00  -1.4235017363460742e+00  -1.2840027075414373e+00  -1.1433886362241508e+00  -1.0021556031805012e+00  -8.6049998448079312e-01  -7.1851399660438953e-01  -5.7624855952032339e-01  -4.3373678403079230e-01  -2.9100391411247306e-01  -1.4807190327419845e-01  -4.9616026501587722e-03  1.3830620503806068e-01  2.8171035570895969e-01  4.2522915349067253e-01  5.6884037074485871e-01  7.1252132003812141e-01  8.5624895776340260e-01  1.0000000000000000e+00  </DataArray> 
</PointData> 
</Piece>
</UnstructuredGrid>
</VTKFile>