<?xml version="1.0"?>
<VTKFile type="UnstructuredGrid"  version="0.1"  >
<UnstructuredGrid>
<Piece  NumberOfPoints="4225" NumberOfCells="8192">
<Points>
<DataArray  type="Float64"  NumberOfComponents="3"  format="ascii">0 0 0  0.015625 0 0  0.03125 0 0  0.046875 0 0  0.0625 0 0  0.078125 0 0  0.09375 0 0  0.109375 0 0  0.125 0 0  0.140625 0 0  0.15625 0 0  0.171875 0 0  0.1875 0 0  0.203125 0 0  0.21875 0 0  0.234375 0 0  0.25 0 0  0.265625 0 0  0.28125 0 0  0.296875 0 0  0.3125 0 0  0.328125 0 0  0.34375 0 0  0.359375 0 0  0.375 0 0  0.390625 0 0  0.40625 0 0  0.421875 0 0  0.4375 0 0  0.453125 0 0  0.46875 0 0  0.484375 0 0  0.5 0 0  0.515625 0 0  0.53125 0 0  0.546875 0 0  0.5625 0 0  0.578125 0 0  0.59375 0 0  0.609375 0 0  0.625 0 0  0.640625 0 0  0.65625 0 0  0.671875 0 0  0.6875 0 0  0.703125 0 0  0.71875 0 0  0.734375 0 0  0.75 0 0  0.765625 0 0  0.78125 0 0  0.796875 0 0  0.8125 0 0  0.828125 0 0  0.84375 0 0  0.859375 0 0  0.875 0 0  0.890625 0 0  0.90625 0 0  0.921875 0 0  0.9375 0 0  0.953125 0 0  0.96875 0 0  0.984375 0 0  1 0 0  0 0.015625 0  0.015625 0.015625 0  0.03125 0.015625 0  0.046875 0.015625 0  0.0625 0.015625 0  0.078125 0.015625 0  0.09375 0.015625 0  0.109375 0.015625 0  0.125 0.015625 0  0.140625 0.015625 0  0.15625 0.015625 0  0.171875 0.015625 0  0.1875 0.015625 0  0.203125 0.015625 0  0.21875 0.015625 0  0.234375 0.015625 0  0.25 0.015625 0  0.265625 0.015625 0  0.28125 0.015625 0  0.296875 0.015625 0  0.3125 0.015625 0  0.328125 0.015625 0  0.34375 0.015625 0  0.359375 0.015625 0  0.375 0.015625 0  0.390625 0.015625 0  0.40625 0.015625 0  0.421875 0.015625 0  0.4375 0.015625 0  0.453125 0.015625 0  0.46875 0.015625 0  0.484375 0.015625 0  0.5 0.015625 0  0.515625 0.015625 0  0.53125 0.015625 0  0.546875 0.015625 0  0.5625 0.015625 0  0.578125 0.015625 0  0.59375 0.015625 0  0.609375 0.015625 0  0.625 0.015625 0  0.640625 0.015625 0  0.65625 0.015625 0  0.671875 0.015625 0  0.6875 0.015625 0  0.703125 0.015625 0  0.71875 0.015625 0  0.734375 0.015625 0  0.75 0.015625 0  0.765625 0.015625 0  0.78125 0.015625 0  0.796875 0.015625 0  0.8125 0.015625 0  0.828125 0.015625 0  0.84375 0.015625 0  0.859375 0.015625 0  0.875 0.015625 0  0.890625 0.015625 0  0.90625 0.015625 0  0.921875 0.015625 0  0.9375 0.015625 0  0.953125 0.015625 0  0.96875 0.015625 0  0.984375 0.015625 0  1 0.015625 0  0 0.03125 0  0.015625 0.03125 0  0.03125 0.03125 0  0.046875 0.03125 0  0.0625 0.03125 0  0.078125 0.03125 0  0.09375 0.03125 0  0.109375 0.03125 0  0.125 0.03125 0  0.140625 0.03125 0  0.15625 0.03125 0  0.171875 0.03125 0  0.1875 0.03125 0  0.203125 0.03125 0  0.21875 0.03125 0  0.234375 0.03125 0  0.25 0.03125 0  0.265625 0.03125 0  0.28125 0.03125 0  0.296875 0.03125 0  0.3125 0.03125 0  0.328125 0.03125 0  0.34375 0.03125 0  0.359375 0.03125 0  0.375 0.03125 0  0.390625 0.03125 0  0.40625 0.03125 0  0.421875 0.03125 0  0.4375 0.03125 0  0.453125 0.03125 0  0.46875 0.03125 0  0.484375 0.03125 0  0.5 0.03125 0  0.515625 0.03125 0  0.53125 0.03125 0  0.546875 0.03125 0  0.5625 0.03125 0  0.578125 0.03125 0  0.59375 0.03125 0  0.609375 0.03125 0  0.625 0.03125 0  0.640625 0.03125 0  0.65625 0.03125 0  0.671875 0.03125 0  0.6875 0.03125 0  0.703125 0.03125 0  0.71875 0.03125 0  0.734375 0.03125 0  0.75 0.03125 0  0.765625 0.03125 0  0.78125 0.03125 0  0.796875 0.03125 0  0.8125 0.03125 0  0.828125 0.03125 0  0.84375 0.03125 0  0.859375 0.03125 0  0.875 0.03125 0  0.890625 0.03125 0  0.90625 0.03125 0  0.921875 0.03125 0  0.9375 0.03125 0  0.953125 0.03125 0  0.96875 0.03125 0  0.984375 0.03125 0  1 0.03125 0  0 0.046875 0  0.015625 0.046875 0  0.03125 0.046875 0  0.046875 0.046875 0  0.0625 0.046875 0  0.078125 0.046875 0  0.09375 0.046875 0  0.109375 0.046875 0  0.125 0.046875 0  0.140625 0.046875 0  0.15625 0.046875 0  0.171875 0.046875 0  0.1875 0.046875 0  0.203125 0.046875 0  0.21875 0.046875 0  0.234375 0.046875 0  0.25 0.046875 0  0.265625 0.046875 0  0.28125 0.046875 0  0.296875 0.046875 0  0.3125 0.046875 0  0.328125 0.046875 0  0.34375 0.046875 0  0.359375 0.046875 0  0.375 0.046875 0  0.390625 0.046875 0  0.40625 0.046875 0  0.421875 0.046875 0  0.4375 0.046875 0  0.453125 0.046875 0  0.46875 0.046875 0  0.484375 0.046875 0  0.5 0.046875 0  0.515625 0.046875 0  0.53125 0.046875 0  0.546875 0.046875 0  0.5625 0.046875 0  0.578125 0.046875 0  0.59375 0.046875 0  0.609375 0.046875 0  0.625 0.046875 0  0.640625 0.046875 0  0.65625 0.046875 0  0.671875 0.046875 0  0.6875 0.046875 0  0.703125 0.046875 0  0.71875 0.046875 0  0.734375 0.046875 0  0.75 0.046875 0  0.765625 0.046875 0  0.78125 0.046875 0  0.796875 0.046875 0  0.8125 0.046875 0  0.828125 0.046875 0  0.84375 0.046875 0  0.859375 0.046875 0  0.875 0.046875 0  0.890625 0.046875 0  0.90625 0.046875 0  0.921875 0.046875 0  0.9375 0.046875 0  0.953125 0.046875 0  0.96875 0.046875 0  0.984375 0.046875 0  1 0.046875 0  0 0.0625 0  0.015625 0.0625 0  0.03125 0.0625 0  0.046875 0.0625 0  0.0625 0.0625 0  0.078125 0.0625 0  0.09375 0.0625 0  0.109375 0.0625 0  0.125 0.0625 0  0.140625 0.0625 0  0.15625 0.0625 0  0.171875 0.0625 0  0.1875 0.0625 0  0.203125 0.0625 0  0.21875 0.0625 0  0.234375 0.0625 0  0.25 0.0625 0  0.265625 0.0625 0  0.28125 0.0625 0  0.296875 0.0625 0  0.3125 0.0625 0  0.328125 0.0625 0  0.34375 0.0625 0  0.359375 0.0625 0  0.375 0.0625 0  0.390625 0.0625 0  0.40625 0.0625 0  0.421875 0.0625 0  0.4375 0.0625 0  0.453125 0.0625 0  0.46875 0.0625 0  0.484375 0.0625 0  0.5 0.0625 0  0.515625 0.0625 0  0.53125 0.0625 0  0.546875 0.0625 0  0.5625 0.0625 0  0.578125 0.0625 0  0.59375 0.0625 0  0.609375 0.0625 0  0.625 0.0625 0  0.640625 0.0625 0  0.65625 0.0625 0  0.671875 0.0625 0  0.6875 0.0625 0  0.703125 0.0625 0  0.71875 0.0625 0  0.734375 0.0625 0  0.75 0.0625 0  0.765625 0.0625 0  0.78125 0.0625 0  0.796875 0.0625 0  0.8125 0.0625 0  0.828125 0.0625 0  0.84375 0.0625 0  0.859375 0.0625 0  0.875 0.0625 0  0.890625 0.0625 0  0.90625 0.0625 0  0.921875 0.0625 0  0.9375 0.0625 0  0.953125 0.0625 0  0.96875 0.0625 0  0.984375 0.0625 0  1 0.0625 0  0 0.078125 0  0.015625 0.078125 0  0.03125 0.078125 0  0.046875 0.078125 0  0.0625 0.078125 0  0.078125 0.078125 0  0.09375 0.078125 0  0.109375 0.078125 0  0.125 0.078125 0  0.140625 0.078125 0  0.15625 0.078125 0  0.171875 0.078125 0  0.1875 0.078125 0  0.203125 0.078125 0  0.21875 0.078125 0  0.234375 0.078125 0  0.25 0.078125 0  0.265625 0.078125 0  0.28125 0.078125 0  0.296875 0.078125 0  0.3125 0.078125 0  0.328125 0.078125 0  0.34375 0.078125 0  0.359375 0.078125 0  0.375 0.078125 0  0.390625 0.078125 0  0.40625 0.078125 0  0.421875 0.078125 0  0.4375 0.078125 0  0.453125 0.078125 0  0.46875 0.078125 0  0.484375 0.078125 0  0.5 0.078125 0  0.515625 0.078125 0  0.53125 0.078125 0  0.546875 0.078125 0  0.5625 0.078125 0  0.578125 0.078125 0  0.59375 0.078125 0  0.609375 0.078125 0  0.625 0.078125 0  0.640625 0.078125 0  0.65625 0.078125 0  0.671875 0.078125 0  0.6875 0.078125 0  0.703125 0.078125 0  0.71875 0.078125 0  0.734375 0.078125 0  0.75 0.078125 0  0.765625 0.078125 0  0.78125 0.078125 0  0.796875 0.078125 0  0.8125 0.078125 0  0.828125 0.078125 0  0.84375 0.078125 0  0.859375 0.078125 0  0.875 0.078125 0  0.890625 0.078125 0  0.90625 0.078125 0  0.921875 0.078125 0  0.9375 0.078125 0  0.953125 0.078125 0  0.96875 0.078125 0  0.984375 0.078125 0  1 0.078125 0  0 0.09375 0  0.015625 0.09375 0  0.03125 0.09375 0  0.046875 0.09375 0  0.0625 0.09375 0  0.078125 0.09375 0  0.09375 0.09375 0  0.109375 0.09375 0  0.125 0.09375 0  0.140625 0.09375 0  0.15625 0.09375 0  0.171875 0.09375 0  0.1875 0.09375 0  0.203125 0.09375 0  0.21875 0.09375 0  0.234375 0.09375 0  0.25 0.09375 0  0.265625 0.09375 0  0.28125 0.09375 0  0.296875 0.09375 0  0.3125 0.09375 0  0.328125 0.09375 0  0.34375 0.09375 0  0.359375 0.09375 0  0.375 0.09375 0  0.390625 0.09375 0  0.40625 0.09375 0  0.421875 0.09375 0  0.4375 0.09375 0  0.453125 0.09375 0  0.46875 0.09375 0  0.484375 0.09375 0  0.5 0.09375 0  0.515625 0.09375 0  0.53125 0.09375 0  0.546875 0.09375 0  0.5625 0.09375 0  0.578125 0.09375 0  0.59375 0.09375 0  0.609375 0.09375 0  0.625 0.09375 0  0.640625 0.09375 0  0.65625 0.09375 0  0.671875 0.09375 0  0.6875 0.09375 0  0.703125 0.09375 0  0.71875 0.09375 0  0.734375 0.09375 0  0.75 0.09375 0  0.765625 0.09375 0  0.78125 0.09375 0  0.796875 0.09375 0  0.8125 0.09375 0  0.828125 0.09375 0  0.84375 0.09375 0  0.859375 0.09375 0  0.875 0.09375 0  0.890625 0.09375 0  0.90625 0.09375 0  0.921875 0.09375 0  0.9375 0.09375 0  0.953125 0.09375 0  0.96875 0.09375 0  0.984375 0.09375 0  1 0.09375 0  0 0.109375 0  0.015625 0.109375 0  0.03125 0.109375 0  0.046875 0.109375 0  0.0625 0.109375 0  0.078125 0.109375 0  0.09375 0.109375 0  0.109375 0.109375 0  0.125 0.109375 0  0.140625 0.109375 0  0.15625 0.109375 0  0.171875 0.109375 0  0.1875 0.109375 0  0.203125 0.109375 0  0.21875 0.109375 0  0.234375 0.109375 0  0.25 0.109375 0  0.265625 0.109375 0  0.28125 0.109375 0  0.296875 0.109375 0  0.3125 0.109375 0  0.328125 0.109375 0  0.34375 0.109375 0  0.359375 0.109375 0  0.375 0.109375 0  0.390625 0.109375 0  0.40625 0.109375 0  0.421875 0.109375 0  0.4375 0.109375 0  0.453125 0.109375 0  0.46875 0.109375 0  0.484375 0.109375 0  0.5 0.109375 0  0.515625 0.109375 0  0.53125 0.109375 0  0.546875 0.109375 0  0.5625 0.109375 0  0.578125 0.109375 0  0.59375 0.109375 0  0.609375 0.109375 0  0.625 0.109375 0  0.640625 0.109375 0  0.65625 0.109375 0  0.671875 0.109375 0  0.6875 0.109375 0  0.703125 0.109375 0  0.71875 0.109375 0  0.734375 0.109375 0  0.75 0.109375 0  0.765625 0.109375 0  0.78125 0.109375 0  0.796875 0.109375 0  0.8125 0.109375 0  0.828125 0.109375 0  0.84375 0.109375 0  0.859375 0.109375 0  0.875 0.109375 0  0.890625 0.109375 0  0.90625 0.109375 0  0.921875 0.109375 0  0.9375 0.109375 0  0.953125 0.109375 0  0.96875 0.109375 0  0.984375 0.109375 0  1 0.109375 0  0 0.125 0  0.015625 0.125 0  0.03125 0.125 0  0.046875 0.125 0  0.0625 0.125 0  0.078125 0.125 0  0.09375 0.125 0  0.109375 0.125 0  0.125 0.12
[...]
<PointData  Scalars="f_6"> 
<DataArray  type="Float64"  Name="f_6"  format="ascii">-4.6000000000000000e+01  -4.4921875000000000e+01  -4.3843750000000000e+01  -4.2765625000000000e+01  -4.1687500000000000e+01  -4.0609375000000000e+01  -3.9531250000000000e+01  -3.8453125000000000e+01  -3.7375000000000000e+01  -3.6296875000000000e+01  -3.5218750000000000e+01  -3.4140625000000000e+01  -3.3062500000000000e+01  -3.1984374999449436e+01  -3.0906250000000000e+01  -2.9828125000000000e+01  -2.8750000000000000e+01  -2.7671875000000000e+01  -2.6593750000000000e+01  -2.5515625000000000e+01  -2.4437500000000000e+01  -2.3359375000000000e+01  -2.2281250000000000e+01  -2.1203125000000000e+01  -2.0125000000000000e+01  -1.9046875000000000e+01  -1.7968750000000000e+01  -1.6890625000000000e+01  -1.5812500000000000e+01  -1.4734375000000000e+01  -1.3656250000000000e+01  -1.2578125000000000e+01  -1.1500000000000000e+01  -1.0421875000000000e+01  -9.3437500000000000e+00  -8.2656250000000000e+00  -7.1875000000000000e+00  -6.1093750000000311e+00  -5.0312500000000000e+00  -3.9531250000000000e+00  -2.8750000000000000e+00  -1.7968750000000000e+00  -7.1875000000000000e-01  3.5937500000000000e-01  1.4375000000000000e+00  2.5156249994471125e+00  3.5937500000000000e+00  4.6718750000000000e+00  5.7500000000000000e+00  6.8281250000000000e+00  7.9062500000000000e+00  8.9843750000000000e+00  1.0062500000000000e+01  1.1140624993480742e+01  1.2218750000000000e+01  1.3296875000000000e+01  1.4375000000000000e+01  1.5453125000000000e+01  1.6531250000000000e+01  1.7609375000000000e+01  1.8687500000000000e+01  1.9765625000000000e+01  2.0843750000000000e+01  2.1921875000000000e+01  2.3000000000000000e+01  -4.6000000000000000e+01  8.0675589368619621e+04  -1.1463568141029802e+04  2.0401590683573449e+04  5.3640458511520665e+04  -2.1219963921995374e+05  1.7244462248445419e+04  -6.7503281915524203e+04  1.7594791315789023e+05  -2.4178670974238758e+05  5.1574601122457848e+05  4.4324123640344995e+04  -4.4104013220903679e+05  1.6042630359731293e+06  -1.0924819320851190e+06  -1.7751598364778428e+05  -7.6054506797686379e+04  -7.0111808731256300e+04  4.2396884866749468e+04  9.7880667482802688e+04  -1.7431278425998770e+05  1.3831039901479858e+05  -2.9959179800459556e+05  1.1344308982090819e+05  -7.0544356257976848e+05  2.0361117654278479e+06  -6.4347961036139755e+06  5.1057470267733186e+05  -1.3386752780656170e+05  3.6590915553537372e+04  3.2371117673607081e+04  -3.5477783036873101e+04  4.2581377593180056e+04  -1.4423326019475871e+05  6.0508837640792510e+04  -3.0093083141048966e+04  1.1115292085816611e+05  -2.0280061360583958e+05  5.1775172195165575e+05  -5.6751715413869871e+05  1.9498388925654182e+05  -4.9312748275977843e+04  -2.9269531960929638e+04  2.4669540711277179e+04  -3.0071042174897408e+08  -2.5528374085677201e+08  -2.2253587235952881e+08  -2.3461275759695566e+08  -1.8439436184461421e+08  -1.2592971014360276e+08  -1.0411969028895855e+08  -1.1169188203215379e+08  -1.2235339263664752e+08  -2.0940710158973855e+08  1.3302593287543672e+08  4.8777750527695322e+08  -1.0309635172743767e+08  -5.5146618874312788e+07  -6.5303714580564901e+07  -5.1382847089939699e+07  -5.1007225096817940e+07  2.4084729479913536e+07  -3.1365838164915808e+07  -8.3308414834423251e+06  2.3000000000000000e+01  -4.6000000000000000e+01  -5.4951536714082840e+05  -1.0068400668983805e+08  -1.7937613184545311e+08  -1.9591184494966143e+08  -3.4628434451563293e+08  -3.2289653369684106e+08  -3.0280030418166876e+08  -5.6669745419021487e+08  -7.1875642625374663e+08  -3.4070962980705333e+08  -4.2717432354912591e+08  -4.6662304787423635e+08  -4.7837348648071390e+08  -6.7169450231487417e+08  -3.1125462988846982e+08  -4.5867416764071059e+08  2.8896876747558908e+09  -3.3798675625855908e+09  -4.9727871648716278e+09  -4.4331605371555653e+09  -4.0396873699220772e+09  -7.4739192228962498e+09  -1.3212794017391809e+10  -2.4719700990954445e+10  -4.6830312730913025e+10  -1.6251496371169806e+11  1.6389734107232306e+10  -4.4539411535310256e+08  -1.3790231645634117e+09  5.3564448342237926e+08  1.3381332907810168e+09  1.1402097175239063e+10  -3.8882698123199196e+09  9.3645879098658359e+08  2.3409463349578037e+09  2.7455319742299528e+09  -7.5240656243089938e+08  9.6899367694517446e+08  -2.8484351078928375e+09  2.1771603693984895e+09  2.2280984669800335e+10  2.1033862014893174e+09  -1.3453696188099003e+09  -1.7662637708547289e+09  2.9844333656608596e+09  -1.0445653777995050e+09  1.5782267323147244e+09  1.7650460337021565e+09  -7.5467784176894510e+08  -6.9290867068494415e+08  4.1585331265997767e+08  -6.0691539236575007e+07  1.4753383226970980e+08  -2.7772674392426097e+08  -6.2521044576051795e+08  5.0638502300616443e+07  -3.1520023195019126e+08  -1.6058619480183482e+08  -2.2675711051926216e+08  2.2697242756940383e+08  -5.6503647884613371e+08  2.2339479316064423e+08  -9.6824171428588443e+06  2.3000000000000000e+01  -4.6000000000000000e+01  -3.1750453434156603e+05  6.4498652012226954e+06  2.2561716514762518e+08  -3.3556666762580529e+07  -2.6730992562453246e+08  4.2381665728563535e+08  -6.1622433719324732e+08  7.7262393375273061e+08  -4.4400882017243004e+09  -3.7262284083871406e+08  1.8913591040874901e+08  -4.5874319584882212e+08  -4.4390541994959837e+08  2.1099229289376676e+09  -3.5969936120024490e+09  5.6081195040759468e+09  -4.4437039989595276e+08  -1.7008327637195921e+09  1.8482834899471850e+09  -4.6457245905985241e+09  1.0511512331651095e+09  -7.8572631809502048e+09  1.5600104092193768e+10  -5.3111942566515305e+10  6.5365109164791046e+10  1.1199435735639746e+11  -3.0389800307809776e+10  -1.9030415164515694e+10  4.8551238270500290e+10  1.4798132029706562e+10  -7.9623283387560024e+09  -3.5387749491551561e+09  -8.6692601297213573e+09  -4.1476406008022189e+09  -9.0472379569921989e+09  -1.0402030790802406e+10  3.1020727909033670e+09  -4.0547606723141317e+09  -8.3619683437336626e+09  4.6741906585816841e+09  3.0874098639585085e+09  -1.1530259518310865e+10  -3.9357542252581663e+09  1.6675870767903001e+09  -3.6067301306588259e+09  -9.2710481691314012e+07  -8.0242202666841412e+08  -9.5318764613559771e+08  -6.7397262918789518e+08  4.9689741060361803e+08  -7.8792440062089610e+08  -8.4493691365370989e+08  -2.3892078622946179e+08  -2.7853576859675241e+08  -5.3790667704280949e+08  -4.8489755187644660e+08  -4.3380468607803071e+08  9.6564156026778340e+08  -4.5041542201427543e+08  -2.6569971388527641e+09  -7.4297726839276195e+07  -2.5109657517457958e+07  -2.2527751304117924e+08  2.3000000000000000e+01  -4.6000000000000000e+01  -5.7576266905307129e+04  -1.1270440926173410e+08  -8.7850207089011800e+08  -3.5582965617888904e+08  2.6070166028574157e+08  -1.0738133993314185e+09  -1.9625856511761963e+09  -3.0789227594453688e+09  2.3279525917487020e+09  2.8785447996675301e+09  -2.8362878361514921e+09  -1.0706134741604443e+10  9.7656102034620857e+09  -5.2099151726564770e+09  -1.3965002146488848e+08  -4.2244625914521370e+09  -7.3455012597746105e+09  7.7783639354848232e+09  -1.2373331340979422e+10  7.7871389645082264e+09  -5.0400354562645401e+10  4.0407520735868393e+10  -1.7765805410388757e+11  1.1900808938532971e+11  -2.2860592897090439e+10  -8.9424118092496674e+10  -1.1377423561515709e+11  -1.0439540393684262e+11  8.2423383077099625e+10  -1.5623509886241650e+11  -1.7224061035363480e+10  1.5446407514179745e+08  1.1351647093279095e+09  -2.1329085071434753e+09  3.3888955863032364e+10  1.7554551330015297e+10  -5.6422067048265381e+10  -1.0372756364286114e+10  2.9105521025639510e+09  8.2676920748560560e+08  -1.9590713648319559e+09  -1.7334915990941612e+10  5.0233232995415335e+09  -4.3007578272114649e+09  -3.6400438790299387e+09  1.4192417461942668e+09  -1.1732937928719664e+09  4.8511700831915879e+08  1.4968027693472844e+08  7.5908519673494363e+08  -7.6089084635482788e+08  1.7249389093550351e+09  -3.1510161520279115e+08  7.3963000615701890e+08  4.7478503862677169e+08  2.4326401443875608e+09  -4.4699421876531327e+08  -4.9449602664460313e+08  -2.6627350433519056e+08  2.2423005778773565e+09  -2.9743778482029361e+08  1.9707275014683485e+08  5.0554556416190898e+08  2.3000000000000000e+01  -4.6000000000000000e+01  5.0965028495307495e+04  -2.6441927645109397e+08  4.0182762725361288e+07  -2.1664898749032283e+08  -1.0645234260983017e+10  9.4961643815628948e+09  -6.4891707180786915e+09  6.2413583517834053e+09  3.9564599880274429e+09  -8.9034270499805794e+09  -3.6689418624661455e+09  1.3640206290110718e+10  -5.2154373235253124e+09  -1.1389467174170895e+10  2.1630892995522186e+10  -2.4953434175969490e+10  1.7290458510051369e+10  -3.7505201256212036e+10  2.3979331133111961e+10  -2.3579012938482346e+10  6.1465955931623688e+10  -5.9030007081852165e+10  1.4437458805220862e+11  7.3011447141051453e+10  2.7292038121892563e+10  1.2046912322269330e+11  -1.4245829233734966e+10  1.4104287981600159e+11  -1.2699039645528082e+11  2.1205936829520691e+10  -3.7456839765686607e+09  2.1628266588393028e+10  -3.9723632036358700e+09  -1.6565886642395825e+09  -5.5523017085318880e+09  1.1137504760545017e+10  -1.4905196936398399e+09  3.2925779254886375e+10  4.8317652525133657e+09  4.4258896589731401e+08  -1.4045265850651224e+10  -3.5297082948004618e+09  -1.9737932405690868e+09  -1.3614578881401777e+09  5.0722129343355923e+09  -2.8892161052279673e+09  -4.8697131883852029e+08  -5.7404440157854116e+08  -4.7244248175749004e+08  -4.3590117846115839e+08  -8.8974076782955527e+08  -1.1922123404547462e+09  -1.0978692066791687e+09  -7.0494534257561624e+08  -6.1407181234661686e+08  -7.8660728778563881e+08  -9.0167742154755497e+08  6.3823140877698207e+08  -5.6435889177175879e+08  1.6969738476173174e+08  -1.6209639841924019e+09  -1.1015023292718536e+10  1.1828755570933836e+09  2.3000000000000000e+01  -4.6000000000000000e+01  -2.9387437980426213e+04  -2.4356290208438009e+08  -7.0139870268549751e+06  3.5712391870156538e+08  2.3470828880070496e+09  -1.1191351486460376e+09  -5.5158818528549150e+07  -1.4153769354437666e+09  -1.2286434368279177e+10  -1.6631132251499150e+09  1.3188948627378239e+10  -2.1362554331160843e+10  -5.8932554064381065e+09  2.3850298089366474e+10  -2.7538418395329006e+10  1.7339101913163857e+10  -1.7766437694765648e+10  1.1438792630907307e+10  -1.3530328664768591e+10  1.7277155464244125e+10  -7.4490857142016571e+10  6.3573863285645126e+10  -8.8878683898266754e+10  -9.4577971865714340e+09  -5.4108512131336075e+10  -6.0740665731225815e+10  -1.3413924104475800e+11  -4.0482936403752060e+10  5.8794268495755753e+10  -1.4684055372607752e+10  -2.4444429034763575e+09  2.6630964639789667e+09  -1.5969615846082687e+10  1.7389527008426682e+10  6.3476338058042030e+09  2.3939850570796913e+10  9.5830617502837296e+09  1.3920717246904041e+10  -9.6320869120216560e+09  2.3519484437437557e+10  9.7082692201431488e+10  -1.5570082735995527e+10  4.3391170484635592e+08  1.4346012464983044e+09  -1.5806023564167960e+09  -1.2808973513877416e+09  1.6444080971533914e+09  6.0010577755948496e+08  4.1669130346799031e+07  4.4877684389725924e+08  -4.7799432504858240e+07  8.3298709513923943e+08  1.9596037521571255e+09  2.1404841734957812e+09  1.3238918971386847e+09  3.2080808708826596e+08  -3.3193416047162485e+08  -8.2103679419459224e+08  1.6431312461695790e+08  -2.5088076992540061e+08  -1.1020492144418558e+08  7.5716802462411523e+08  -1.0454886592623386e+09  2.3000000000000000e+01  -4.6000000000000000e+01  2.1651442808649681e+04  -2.9625981750612092e+08  -1.7320140470756611e+08  -3.3061265671074495e+09  5.4714354251256886e+09  1.3810249958647299e+09  -1.0615765876984411e+10  1.3659473585136032e+10  -1.6173937617873493e+08  1.3704416059622372e+10  -1.8969755211904976e+10  -5.9489567244404640e+09  2.6868210410241116e+10  -3.9071190779289871e+10  2.7350970733075485e+10  -3.3051661805681808e+10  2.8155056016617058e+10  -3.7040908173680359e+10  3.2312554485188580e+10  -6.5011206963258682e+10  9.4590705546469177e+10  -5.1374033558845001e+10  8.0898091247503250e+10  6.0025302757552483e+10  4.1150897131839600e+09  6.1961722132602615e+10  -5.1125207371517670e+10  1.3299796903379401e+11  -2.8038906953129601e+10  -6.9438190657724075e+09  5.9071670670907707e+09  -1.7233599422611736e+10  -1.1237499352176594e+10  6.0726397139420691e+09  -1.2847926258014261e+10  -9.6717209918184586e+09  -7.0867683300958127e+07  -4.0499122483218088e+09  -8.2695408357888613e+09  -1.0514781102687126e+10  -8.9379009673053207e+09  -8.2139194835729401e+10  1.6575673975810684e+10  4.1747935901818519e+09  -3.9486129854516852e+08  2.7475339087193489e+09  -3.0029315890281782e+09  2.0590402792711327e+10  4.6721934554911911e+10  4.6004036773547523e+10  4.0360756572034691e+10  2.9999951179955750e+10  1.8870460991655586e+10  9.7370644596345100e+09  3.6409265214301424e+09  2.3722630830127192e+08  6.0076627513973983e+06  1.2560059185055294e+09  -4.2639009697163641e+08  -2.1155786983550915e+08  3.2861626198693104e+07  2.1951919536919796e+08  5.8113113255550385e+07  2.3000000000000000e+01  -4.6000000000000000e+01  -1.9510854433797733e+04  -1.7807875011622810e+08  -3.8257655842654252e+08  4.6150896226399851e+09  -5.4871065924669361e+09  -9.2569571264313488e+09  1.3222523458859222e+10  -2.3896583022385529e+10  -7.7800160655580366e+08  -8.7478568563987389e+09  -8.3708328776687479e+08  3.2807048475586800e+10  -3.4729789761660118e+10  -1.0157617298901085e+09  1.9426072437921535e+10  -1.2477665428686522e+10  -2.8397214462957588e+10  2.0711360895938915e+10  -2.6969019411351078e+10  6.7415345922298599e+10  -5.2155306787772018e+10  5.2610815182868240e+10  -3.4605613562975266e+10  -9.3638941203550964e+10  -6.5878959565604248e+10  -1.7603203159319250e+11  9.5958931479893372e+10  -1.6954771475871433e+10  -1.4966523575666660e+10  -1.8074345110818253e+10  -1.5082360035133625e+10  -1.1749082021640522e+10  3.8537533299248295e+09  -1.6428276638251154e+10  -1.0749495960081171e+10  1.6750379282033272e+09  -8.0562541395706472e+09  -5.4259638223138561e+09  -5.9655804452621012e+09  7.9547134940386581e+09  -1.5256051722696621e+10  1.1294315540485103e+11  -6.2054912767318554e+09  -1.4841658425790691e+09  -1.5251181338739624e+09  -3.6150483441376805e+09  -4.0020203584223976e+09  -5.0594954104419601e+08  -4.6077603379679199e+10  -6.2524370246413498e+10  -5.6206210933034790e+10  -4.9338700104946884e+10  -3.9249301497587616e+10  -2.8164671376852371e+10  -1.8626301355295746e+10  -1.1739547403653320e+10  -7.5272260333647127e+09  -2.6571023733916979e+09  -1.7566599254614999e+09  -1.0268558804102831e+09  -3.7296569644527888e+08  -2.4344484873942336e+08  2.3134632472626925e+08  2.3000000000000000e+01  -4.6000000000000000e+01  -5.5567538782996191e+04  2.1700239551825041e+08  -4.6036395905281198e+08  -7.1319505396130199e+09  -5.0145166126996756e+09  1.5132471447458553e+10  -1.0448350586169209e+10  2.0770622958968868e+10  -2.7045474371242700e+09  -3.5440430965926113e+09  2.6529238131929102e+09  -2.8526377112082691e+10  6.3538945987046182e+08  2.3077745741119981e+09  -2.8212286198908701e+09  -2.0164222656348839e+10  3.1612717320697617e+10  -1.4213632325647224e+10  5.5498085537242340e+10  -7.9910204426005219e+10  4.6157790604318970e+10  -4.1320493360850060e+10  -3.2885829044981167e+10  2.5637104924913616e+09  1.1161815052081704e+09  1.9637602514064801e+11  -3.6794921525478392e+09  -4.2973623125940390e+09  -1.5330062972951197e+10  -1.9137381526744591e+10  9.8646885023457451e+09  9.1795290630318791e+07  -1.0844996064635077e+10  -1.2452309653036545e+10  1.6382528108182808e+10  -4.9715416628329582e+10  8.3117035430525208e+10  -7.7664141816639061e+09  1.2431284950606903e+10  -6.7014264157616024e+09  -3.3946060034920898e+10  -3.3090153678218552e+10  -8.3361652672935772e+09  5.2517940419813881e+09  -4.2684954867170010e+09  -2.7837965308859358e+09  1.3219903196195416e+09  -3.7860455822450500e+09  -3.8740325176921177e+09  4.4125698637035324e+10  3.8122761240714401e+10  4.2181745188220947e+10  3.9074061008010765e+10  2.9920806478209496e+10  1.9733189432245834e+10  1.1593262939433258e+10  6.1949504502259445e+09  3.1663921100625620e+09  1.1853652219194684e+09  2.1153684415539807e+08  -2.4457328182853431e+08  -7.5606444232160234e+08  -1.9426157801914829e+08  2.3000000000000000e+01  -4.6000000000000000e+01  -4.1086317424190147e+03  -5.7199182470265493e+07  -4.5224112123476398e+08  4.9802606706097565e+09  1.1203345999025650e+10  -4.9405767100067978e+09  1.8951324010589798e+10  -1.2141795393007553e+10  -6.7110845055445538e+09  3.7741211677815857e+09  -7.9796888652370434e+09  3.9707766924647970e+09  5.1803594436459932e+09  2.3038935521247802e+09  -1.3827614807297359e+10  2.2053598472047085e+10  -1.8157162781586845e+10  1.3047190914011600e+10  -3.4165605439856956e+10  5.4380635882564491e+10  1.1674196145892231e+09  -4.3235694592579063e+10  3.2595016027866821e+09  3.9516301679373775e+09  2.1604043158607197e+10  2.1191527205094366e+09  2.5726321932035973e+10  -6.8800943273784210e+10  2.6961302310797585e+10  -1.6485682662652925e+10  -3.3994154748526939e+10  -5.4878124291454268e+08  -1.0853424506060341e+10  8.6965974625732803e+09  -3.5627462146465706e+10  -1.3271208192103907e+10  -7.7602092628376570e+09  -1.2040980706779404e+11  -5.9351433868476276e+09  -8.8618002077973137e+09  1.8383946124249321e+10  -1.1644146893617981e+10  1.7326460880794250e+10  -6.3140372217759428e+09  -4.1926812968435478e+09  1.3905439062726905e+09  -3.5271534909316044e+09  -4.2212527688642793e+09  -1.5335906204960518e+09  -5.8429869602543396e+10  -4.9062131553591507e+10  -5.0319887108062798e+10  -4.8394475443198029e+10  -3.8764482320806595e+10  -2.6233126807914780e+10  -1.5809739983877846e+10  -9.0061274251060829e+09  -4.8286288288447666e+09  -2.5308343209593945e+09  -1.3735868120351820e+09  -8.0990456752022028e+08  2.8225696963404727e+08  -1.8063473524343985e+08  2.3000000000000000e+01  -4.6000000000000000e+01  3.9148443684084850e+04  -3.0874455394428325e+08  2.4580623104857656e+08  -1.6286045928020821e+09  -6.1020362357954330e+09  -2.9633838077166361e+08  -1.1478993663651876e+10  8.4038390610347003e+07  1.7412511654524882e+09  -3.3079899523834453e+09  -1.7224639878585398e+07  -5.9043852583327122e+09  -5.2664204643021506e+08  -2.0594791684429291e+10  8.3677687306702452e+09  -2.3953429796465252e+10  1.0784213538441454e+10  -6.3244280403072224e+09  -2.0888013819902618e+10  1.5467931536242514e+09  -5.0681094841236458e+10  4.6019927067306461e+09  -3.3394735671675983e+10  -1.3684596340470905e+10  -2.7813322170953860e+09  8.9865937797176781e+09  -2.1399695001918655e+10  5.9343666535740280e+09  -1.6101131553825737e+10  -1.4790212241886330e+10  5.8437845668880882e+09  6.8230182195606937e+09  -5.1718867853519306e+09  -1.5082348440368061e+10  -1.2610354489243160e+10  -2.4809718055660965e+10  7.5928426836195936e+09  -3.7224979240968828e+09  8.3973423144985931e+10  1.9418601653530835e+11  -6.8805559377841003e+10  -1.2987326113412762e+10  -1.3968641763142399e+10  1.2606118294468616e+10  -9.8307462721015501e+08  -3.5294129324123573e+09  -3.6577946425520344e+09  2.0884799319611540e+08  3.6432263791372696e+10  3.7462225106894943e+10  2.6939368860373299e+10  3.4054413539754139e+10  3.6463390483292770e+10  3.3419507189503311e+10  2.2341080177191414e+10  1.1579632273139498e+10  4.7343673921101227e+09  1.3276434102438040e+09  -1.1625854386471325e+08  -5.2410043664966053e+08  1.4139637741887805e+08  -3.8010779840610147e+08  -1.9108506769877189e+08  2.3000000000000000e+01  -4.6000000000000000e+01  -4.2854437039713463e+04  -2.9680579308550596e+08  -4.0851629716495901e+08  -1.3207087825038357e+09  -9.7929225225140363e+07  -8.6264147411560783e+09  3.5044839000286283e+09  3.0922513846068630e+09  -8.2260926121311626e+09  2.8305889929535522e+09  -7.8995262385905015e+08  -1.4169771254216141e+10  -4.5661266912264252e+09  1.6343960109128826e+10  -8.7578402982953606e+09  2.2008169645058640e+10  -1.4707276721357162e+10  -1.6659860259826920e+10  2.1078261927478111e+10  -7.6604397963656235e+09  4.8174285116892147e+09  2.7662619411190186e+10  -2.5221752619492424e+10  1.6323287682729191e+10  -3.8024490541610250e+09  -7.8399959575863552e+08  -1.8965405670582031e+10  6.6154894904867249e+09  -1.651630