<?xml version="1.0"?>
<VTKFile type="UnstructuredGrid"  version="0.1"  >
<UnstructuredGrid>
<Piece  NumberOfPoints="441" NumberOfCells="800">
<Points>
<DataArray  type="Float64"  NumberOfComponents="3"  format="ascii">0 0 0  0.05 0 0  0.1 0 0  0.15 0 0  0.2 0 0  0.25 0 0  0.3 0 0  0.35 0 0  0.4 0 0  0.45 0 0  0.5 0 0  0.55 0 0  0.6 0 0  0.65 0 0  0.7 0 0  0.75 0 0  0.8 0 0  0.85 0 0  0.9 0 0  0.95 0 0  1 0 0  0 0.05 0  0.05 0.05 0  0.1 0.05 0  0.15 0.05 0  0.2 0.05 0  0.25 0.05 0  0.3 0.05 0  0.35 0.05 0  0.4 0.05 0  0.45 0.05 0  0.5 0.05 0  0.55 0.05 0  0.6 0.05 0  0.65 0.05 0  0.7 0.05 0  0.75 0.05 0  0.8 0.05 0  0.85 0.05 0  0.9 0.05 0  0.95 0.05 0  1 0.05 0  0 0.1 0  0.05 0.1 0  0.1 0.1 0  0.15 0.1 0  0.2 0.1 0  0.25 0.1 0  0.3 0.1 0  0.35 0.1 0  0.4 0.1 0  0.45 0.1 0  0.5 0.1 0  0.55 0.1 0  0.6 0.1 0  0.65 0.1 0  0.7 0.1 0  0.75 0.1 0  0.8 0.1 0  0.85 0.1 0  0.9 0.1 0  0.95 0.1 0  1 0.1 0  0 0.15 0  0.05 0.15 0  0.1 0.15 0  0.15 0.15 0  0.2 0.15 0  0.25 0.15 0  0.3 0.15 0  0.35 0.15 0  0.4 0.15 0  0.45 0.15 0  0.5 0.15 0  0.55 0.15 0  0.6 0.15 0  0.65 0.15 0  0.7 0.15 0  0.75 0.15 0  0.8 0.15 0  0.85 0.15 0  0.9 0.15 0  0.95 0.15 0  1 0.15 0  0 0.2 0  0.05 0.2 0  0.1 0.2 0  0.15 0.2 0  0.2 0.2 0  0.25 0.2 0  0.3 0.2 0  0.35 0.2 0  0.4 0.2 0  0.45 0.2 0  0.5 0.2 0  0.55 0.2 0  0.6 0.2 0  0.65 0.2 0  0.7 0.2 0  0.75 0.2 0  0.8 0.2 0  0.85 0.2 0  0.9 0.2 0  0.95 0.2 0  1 0.2 0  0 0.25 0  0.05 0.25 0  0.1 0.25 0  0.15 0.25 0  0.2 0.25 0  0.25 0.25 0  0.3 0.25 0  0.35 0.25 0  0.4 0.25 0  0.45 0.25 0  0.5 0.25 0  0.55 0.25 0  0.6 0.25 0  0.65 0.25 0  0.7 0.25 0  0.75 0.25 0  0.8 0.25 0  0.85 0.25 0  0.9 0.25 0  0.95 0.25 0  1 0.25 0  0 0.3 0  0.05 0.3 0  0.1 0.3 0  0.15 0.3 0  0.2 0.3 0  0.25 0.3 0  0.3 0.3 0  0.35 0.3 0  0.4 0.3 0  0.45 0.3 0  0.5 0.3 0  0.55 0.3 0  0.6 0.3 0  0.65 0.3 0  0.7 0.3 0  0.75 0.3 0  0.8 0.3 0  0.85 0.3 0  0.9 0.3 0  0.95 0.3 0  1 0.3 0  0 0.35 0  0.05 0.35 0  0.1 0.35 0  0.15 0.35 0  0.2 0.35 0  0.25 0.35 0  0.3 0.35 0  0.35 0.35 0  0.4 0.35 0  0.45 0.35 0  0.5 0.35 0  0.55 0.35 0  0.6 0.35 0  0.65 0.35 0  0.7 0.35 0  0.75 0.35 0  0.8 0.35 0  0.85 0.35 0  0.9 0.35 0  0.95 0.35 0  1 0.35 0  0 0.4 0  0.05 0.4 0  0.1 0.4 0  0.15 0.4 0  0.2 0.4 0  0.25 0.4 0  0.3 0.4 0  0.35 0.4 0  0.4 0.4 0  0.45 0.4 0  0.5 0.4 0  0.55 0.4 0  0.6 0.4 0  0.65 0.4 0  0.7 0.4 0  0.75 0.4 0  0.8 0.4 0  0.85 0.4 0  0.9 0.4 0  0.95 0.4 0  1 0.4 0  0 0.45 0  0.05 0.45 0  0.1 0.45 0  0.15 0.45 0  0.2 0.45 0  0.25 0.45 0  0.3 0.45 0  0.35 0.45 0  0.4 0.45 0  0.45 0.45 0  0.5 0.45 0  0.55 0.45 0  0.6 0.45 0  0.65 0.45 0  0.7 0.45 0  0.75 0.45 0  0.8 0.45 0  0.85 0.45 0  0.9 0.45 0  0.95 0.45 0  1 0.45 0  0 0.5 0  0.05 0.5 0  0.1 0.5 0  0.15 0.5 0  0.2 0.5 0  0.25 0.5 0  0.3 0.5 0  0.35 0.5 0  0.4 0.5 0  0.45 0.5 0  0.5 0.5 0  0.55 0.5 0  0.6 0.5 0  0.65 0.5 0  0.7 0.5 0  0.75 0.5 0  0.8 0.5 0  0.85 0.5 0  0.9 0.5 0  0.95 0.5 0  1 0.5 0  0 0.55 0  0.05 0.55 0  0.1 0.55 0  0.15 0.55 0  0.2 0.55 0  0.25 0.55 0  0.3 0.55 0  0.35 0.55 0  0.4 0.55 0  0.45 0.55 0  0.5 0.55 0  0.55 0.55 0  0.6 0.55 0  0.65 0.55 0  0.7 0.55 0  0.75 0.55 0  0.8 0.55 0  0.85 0.55 0  0.9 0.55 0  0.95 0.55 0  1 0.55 0  0 0.6 0  0.05 0.6 0  0.1 0.6 0  0.15 0.6 0  0.2 0.6 0  0.25 0.6 0  0.3 0.6 0  0.35 0.6 0  0.4 0.6 0  0.45 0.6 0  0.5 0.6 0  0.55 0.6 0  0.6 0.6 0  0.65 0.6 0  0.7 0.6 0  0.75 0.6 0  0.8 0.6 0  0.85 0.6 0  0.9 0.6 0  0.95 0.6 0  1 0.6 0  0 0.65 0  0.05 0.65 0  0.1 0.65 0  0.15 0.65 0  0.2 0.65 0  0.25 0.65 0  0.3 0.65 0  0.35 0.65 0  0.4 0.65 0  0.45 0.65 0  0.5 0.65 0  0.55 0.65 0  0.6 0.65 0  0.65 0.65 0  0.7 0.65 0  0.75 0.65 0  0.8 0.65 0  0.85 0.65 0  0.9 0.65 0  0.95 0.65 0  1 0.65 0  0 0.7 0  0.05 0.7 0  0.1 0.7 0  0.15 0.7 0  0.2 0.7 0  0.25 0.7 0  0.3 0.7 0  0.35 0.7 0  0.4 0.7 0  0.45 0.7 0  0.5 0.7 0  0.55 0.7 0  0.6 0.7 0  0.65 0.7 0  0.7 0.7 0  0.75 0.7 0  0.8 0.7 0  0.85 0.7 0  0.9 0.7 0  0.95 0.7 0  1 0.7 0  0 0.75 0  0.05 0.75 0  0.1 0.75 0  0.15 0.75 0  0.2 0.75 0  0.25 0.75 0  0.3 0.75 0  0.35 0.75 0  0.4 0.75 0  0.45 0.75 0  0.5 0.75 0  0.55 0.75 0  0.6 0.75 0  0.65 0.75 0  0.7 0.75 0  0.75 0.75 0  0.8 0.75 0  0.85 0.75 0  0.9 0.75 0  0.95 0.75 0  1 0.75 0  0 0.8 0  0.05 0.8 0  0.1 0.8 0  0.15 0.8 0  0.2 0.8 0  0.25 0.8 0  0.3 0.8 0  0.35 0.8 0  0.4 0.8 0  0.45 0.8 0  0.5 0.8 0  0.55 0.8 0  0.6 0.8 0  0.65 0.8 0  0.7 0.8 0  0.75 0.8 0  0.8 0.8 0  0.85 0.8 0  0.9 0.8 0  0.95 0.8 0  1 0.8 0  0 0.85 0  0.05 0.85 0  0.1 0.85 0  0.15 0.85 0  0.2 0.85 0  0.25 0.85 0  0.3 0.85 0  0.35 0.85 0  0.4 0.85 0  0.45 0.85 0  0.5 0.85 0  0.55 0.85 0  0.6 0.85 0  0.65 0.85 0  0.7 0.85 0  0.75 0.85 0  0.8 0.85 0  0.85 0.85 0  0.9 0.85 0  0.95 0.85 0  1 0.85 0  0 0.9 0  0.05 0.9 0  0.1 0.9 0  0.15 0.9 0  0.2 0.9 0  0.25 0.9 0  0.3 0.9 0  0.35 0.9 0  0.4 0.9 0  0.45 0.9 0  0.5 0.9 0  0.55 0.9 0  0.6 0.9 0  0.65 0.9 0  0.7 0.9 0  0.75 0.9 0  0.8 0.9 0  0.85 0.9 0  0.9 0.9 0  0.95 0.9 0  1 0.9 0  0 0.95 0  0.05 0.95 0  0.1 0.95 0  0.15 0.95 0  0.2 0.95 0  0.25 0.95 0  0.3 0.95 0  0.35 0.95 0  0.4 0.95 0  0.45 0.95 0  0.5 0.95 0  0.55 0.95 0  0.6 0.95 0  0.65 0.95 0  0.7 0.95 0  0.75 0.95 0  0.8 0.95 0  0.85 0.95 0  0.9 0.95 0  0.95 0.95 0  1 0.95 0  0 1 0  0.05 1 0  0.1 1 0  0.15 1 0  0.2 1 0  0.25 1 0  0.3 1 0  0.35 1 0  0.4 1 0  0.45 1 0  0.5 1 0  0.55 1 0  0.6 1 0  0.65 1 0  0.7 1 0  0.75 1 0  0.8 1 0  0.85 1 0  0.9 1 0  0.95 1 0  1 1 0  </DataArray>
</Points>
<Cells>
[...]
<PointData  Scalars="f_6"> 
<DataArray  type="Float64"  Name="f_6"  format="ascii">-2.0000000000000000e+00  -1.8499999999999996e+00  -1.7000000000000000e+00  -1.5500000000000000e+00  -1.4000000000000001e+00  -1.2500000000000000e+00  -1.0999999999999999e+00  -9.5000000000000007e-01  -7.9999999999999993e-01  -6.5000000000000013e-01  -5.0000000000000000e-01  -3.4999999999999987e-01  -2.0000000000000007e-01  -4.9999999999999933e-02  9.9999999999999867e-02  2.5000000000000000e-01  4.0000000000000013e-01  5.4999999999999993e-01  7.0000000000000007e-01  8.4999999999999987e-01  1.0000000000000000e+00  -1.9999999999999998e+00  -1.7573847989261064e+00  -1.6140153441376444e+00  -1.4831378614741473e+00  -1.3482132671205982e+00  -1.2092251875800124e+00  -1.0679666081233026e+00  -9.2637357762328065e-01  -7.8333034547048064e-01  -6.3788913887963805e-01  -4.9069882025995809e-01  -3.4255205754923890e-01  -1.9391044536183033e-01  -4.4994632878969383e-02  1.0408893839370124e-01  2.5328291214724979e-01  4.0255247797765875e-01  5.5187431922244323e-01  7.0123144536199822e-01  8.5061047070904694e-01  1.0000000000000000e+00  -2.0000000000000000e+00  -1.7445794352707500e+00  -1.6018604645384273e+00  -1.4686783346510177e+00  -1.3338861546338927e+00  -1.1963355625815864e+00  -1.0566107179094124e+00  -9.1545306386271952e-01  -7.7275608454876332e-01  -6.2833368641384846e-01  -4.8247143896069300e-01  -3.3560876909255560e-01  -1.8809541560152573e-01  -4.0157026114926789e-02  1.0806747430652180e-01  2.5649023221763911e-01  4.0505268054094146e-01  5.5371335355011619e-01  7.0244099151650186e-01  8.5121043747418990e-01  1.0000000000000000e+00  -2.0000000000000000e+00  -1.7352379638628372e+00  -1.5976651490400144e+00  -1.4621573289153893e+00  -1.3256731063117828e+00  -1.1875405436620987e+00  -1.0477891844138774e+00  -9.0663594148877635e-01  -7.6412370826403997e-01  -6.2027261109904763e-01  -4.7525235719366410e-01  -3.2931668216399679e-01  -1.8270543054180755e-01  -3.5605530290107643e-02  1.1184775272967397e-01  2.5955786187584340e-01  4.0745465841835149e-01  5.5548542292057923e-01  7.0360872967970334e-01  8.5179028767121145e-01  1.0000000000000000e+00  -2.0000000000000000e+00  -1.7302380362267673e+00  -1.5936413435211236e+00  -1.4568211050434641e+00  -1.3191915182776537e+00  -1.1804147466205008e+00  -1.0404037325298103e+00  -8.9919833015654760e-01  -7.5683896904848524e-01  -6.1338290796471084e-01  -4.6894896193949026e-01  -3.2370018181893767e-01  -1.7780409414537127e-01  -3.1407417233370580e-02  1.1537120502643880e-01  2.6243880413770915e-01  4.0972266833604187e-01  5.5716495003414590e-01  7.0471821661052081e-01  8.5234198353095247e-01  1.0000000000000000e+00  -2.0000000000000000e+00  -1.7271518218534416e+00  -1.5900127174280567e+00  -1.4522996124211152e+00  -1.3138587853076427e+00  -1.1745242205641022e+00  -1.0342134154607412e+00  -8.9291514345307454e-01  -7.5065112073482920e-01  -6.0747112868859887e-01  -4.6346040341332462e-01  -3.1873098904876807e-01  -1.7340334698736895e-01  -2.7591249524442574e-02  1.1860568047174300e-01  2.6510348131251260e-01  4.1183226075396084e-01  5.5873349226944213e-01  7.0575720319728108e-01  8.5285942984207885e-01  1.0000000000000000e+00  -2.0000000000000000e+00  -1.7249117414115642e+00  -1.5869702918301032e+00  -1.4485059291887750e+00  -1.3094198077815018e+00  -1.1696099448718178e+00  -1.0290105722221699e+00  -8.8759771126046461e-01  -7.4537924287124646e-01  -6.0239008274835659e-01  -4.5869053397750814e-01  -3.1436002397544144e-01  -1.6948705523089361e-01  -2.4159914348774094e-02  1.2153928507246337e-01  2.6753717988663761e-01  4.1376940109784643e-01  5.6017955509238071e-01  7.0671767406708275e-01  8.5333853264008230e-01  1.0000000000000000e+00  -2.0000000000000000e+00  -1.7231466294736497e+00  -1.5844514845459647e+00  -1.4453340050911845e+00  -1.3057045717886944e+00  -1.1654851789314802e+00  -1.0246212173013345e+00  -8.8308588649690667e-01  -7.4087805674143381e-01  -5.9801942545607245e-01  -4.5455162577290986e-01  -3.1053151764459624e-01  -1.6602493561198967e-01  -2.1100637712223862e-02  1.2417419428024726e-01  2.6973655206372732e-01  4.1552860865840668e-01  5.6149765293515208e-01  7.0759540533858678e-01  8.5377702665116761e-01  1.0000000000000000e+00  -2.0000000000000000e+00  -1.7217024962203671e+00  -1.5823550394807706e+00  -1.4426740348413130e+00  -1.3025792953506139e+00  -1.1620049817640736e+00  -1.0209032315547826e+00  -8.7924656068439366e-01  -7.3702767214150888e-01  -5.9425793656158954e-01  -4.5096502601346300e-01  -3.0718948521804418e-01  -1.6298053186024472e-01  -1.8391895168379191e-02  1.2652157769702260e-01  2.7170622542961792e-01  4.1711082853690051e-01  5.6268704265123470e-01  7.0838926770094524e-01  8.5417416862600148e-01  1.0000000000000000e+00  -2.0000000000000000e+00  -1.7204956587913840e+00  -1.5805921428495306e+00  -1.4404277994426822e+00  -1.2999335930083755e+00  -1.1590522212194188e+00  -1.0177401664693280e+00  -8.7596945254437586e-01  -7.3372813457861841e-01  -5.9101962263531371e-01  -4.4786105650130831e-01  -3.0428086535387322e-01  -1.6031581144256563e-01  -1.6007988798071051e-02  1.2859778624660470e-01  2.7345594342082130e-01  4.1852143740834241e-01  5.6375042143194065e-01  7.0910045418795786e-01  8.5453038015189342e-01  1.0000000000000000e+00  -1.9999999999999998e+00  -1.7194692814726573e+00  -1.5790900736855336e+00  -1.4385114270715087e+00  -1.2976750560207884e+00  -1.1565301436358975e+00  -1.0150357605587339e+00  -8.7316294844516340e-01  -7.3089579099327495e-01  -5.8823136289973854e-01  -4.4517871200258335e-01  -3.0175710825357493e-01  -1.5799385975807337e-01  -1.3922034827944421e-02  1.3042161266664615e-01  2.7499832459871998e-01  4.1976855624370663e-01  5.6469275148022824e-01  7.0973174746705192e-01  8.5484689779361478e-01  1.0000000000000000e+00  -2.0000000000000000e+00  -1.7185783639140246e+00  -1.5777874433484369e+00  -1.4368527791370325e+00  -1.2957250603673722e+00  -1.1543575367446486e+00  -1.0127097836845480e+00  -8.7075078968426911e-01  -7.2846071804958046e-01  -5.8583132596778242e-01  -4.4286532035571169e-01  -2.9957499589976988e-01  -1.5598048450820823e-01  -1.2107903422279669e-02  1.3201237464920465e-01  2.7634718606370617e-01  4.2086171148753565e-01  5.6552028077821359e-01  7.1028688640640680e-01  8.5512546355551389e-01  1.0000000000000000e+00  -2.0000000000000000e+00  -1.7177824072916978e+00  -1.5766285566571583e+00  -1.4353871857608123e+00  -1.2940148695670206e+00  -1.1524651592907760e+00  -1.0106950477505403e+00  -8.6866970855778491e-01  -7.2636496555299501e-01  -5.8376790256609845e-01  -4.4087624755271115e-01  -2.9769707048158500e-01  -1.5424517895270951e-01  -1.0541469002170982e-02  1.3338860328874624e-01  2.7751633351936428e-01  4.2181082286451610e-01  5.6623977373868428e-01  7.1077005382484815e-01  8.5536807002203386e-01  1.0000000000000000e+00  -2.0000000000000000e+00  -1.7170393504864894e+00  -1.5755571902276864e+00  -1.4340525376820374e+00  -1.2924820728491222e+00  -1.1507931831008944e+00  -1.0089355394690529e+00  -8.6686803124333489e-01  -7.2456153303851656e-01  -5.8199907119090522e-01  -4.3917469680744936e-01  -2.9609185952114958e-01  -1.5276169181887359e-01  -9.2013969224412854e-03  1.3456717398858742e-01  2.7851872186048843e-01  4.2262547271248008e-01  5.6685793748715996e-01  7.1118548513226787e-01  8.5557676270777316e-01  1.0000000000000000e+00  -2.0000000000000000e+00  -1.7162973279677685e+00  -1.5745083160850593e+00  -1.4327837018905292e+00  -1.2910677010465368e+00  -1.1492899607946259e+00  -1.0073858957814417e+00  -8.6530534390798530e-01  -7.2301406416683134e-01  -5.8049215235155716e-01  -4.3773160896503127e-01  -2.9473397897669079e-01  -1.5150833187919380e-01  -8.0696008573082727e-03  1.3556276772755665e-01  2.7936590722152177e-01  4.2331440863775582e-01  5.6738101836520805e-01  7.1153718650928999e-01  8.5575349567679138e-01  1.0000000000000000e+00  -1.9999999999999998e+00  -1.7154793452152262e+00  -1.5733950442542561e+00  -1.4315062527484825e+00  -1.2897150686518704e+00  -1.1479130632496310e+00  -1.0060127389541029e+00  -8.6395338444033332e-01  -7.2169722736926667e-01  -5.7922386508346024e-01  -4.3652560772442811e-01  -2.9360411554138877e-01  -1.5046805586390216e-01  -7.1314423551549471e-03  1.3638759055742611e-01  2.8006773066028634e-01  4.2388523625181296e-01  5.6781454082662697e-01  7.1182874686289277e-01  8.5590003349010291e-01  1.0000000000000000e+00  -2.0000000000000000e+00  -1.7144489562816767e+00  -1.5720862629682579e+00  -1.4301311961972742e+00  -1.2883732575628315e+00  -1.1466344845979239e+00  -1.0047986123450054e+00  -8.6279822752997803e-01  -7.2059759578644156e-01  -5.7818047288859020e-01  -4.3554284130783200e-01  -2.9268881960053428e-01  -1.4962833367987088e-01  -6.3757032568357904e-03  1.3705130619701666e-01  2.8063218861038453e-01  4.2434426488258253e-01  5.6816316182659443e-01  7.1206322662555099e-01  8.5601789142072793e-01  1.0000000000000000e+00  -2.0000000000000000e+00  -1.7129219947666605e+00  -1.5703698551398249e+00  -1.4285590115095255e+00  -1.2870122808042581e+00  -1.1454530052342262e+00  -1.0037489982980168e+00  -8.6184331754813159e-01  -7.1971445535793177e-01  -5.7735758937662618e-01  -4.3477646501777539e-01  -2.9197998787304585e-01  -1.4898075599821109e-01  -5.7943431893342891e-03  1.3756114887709209e-01  2.8106545270165240e-01  4.2469647284153866e-01  5.6843061497161718e-01  7.1224310639198862e-01  8.5610830556725903e-01  1.0000000000000000e+00  -2.0000000000000000e+00  -1.7102096139806633e+00  -1.5679121513148575e+00  -1.4267227138967442e+00  -1.2856638489104486e+00  -1.1444162572367065e+00  -1.0029010580647044e+00  -8.6111158900659990e-01  -7.1905931872052775e-01  -5.7675896424220707e-01  -4.3422544151359838e-01  -2.9147391087566304e-01  -1.4852035925059298e-01  -5.3820623793826893e-03  1.3792217979903387e-01  2.8137200047759431e-01  4.2494555881030227e-01  5.6861971882634776e-01  7.1237027840352718e-01  8.5617222445632013e-01  1.0000000000000000e+00  -2.0000000000000000e+00  -1.7043787645601718e+00  -1.5643464222421977e+00  -1.4247558438521455e+00  -1.2845041437040867e+00  -1.1436471167374462e+00  -1.0023273877174945e+00  -8.6064266169303627e-01  -7.1865226627537226e-01  -5.7639350735807571e-01  -4.3389242591874788e-01  -2.9116985486541541e-01  -1.4824470774911480e-01  -5.1357268766377131e-03  1.3813763222083225e-01  2.8155481059938858e-01  4.2509404309572812e-01  5.6873242311994487e-01  7.1244606393945198e-01  8.5621031385449486e-01  1.0000000000000000e+00  -2.0000000000000000e+00  -1.6892127769165219e+00  -1.5603389292416177e+00  -1.4234500955655536e+00  -1.2839497653163061e+00  -1.1433406782914974e+00  -1.0021187143747912e+00  -8.6047940377267829e-01  -7.1851357732984955e-01  -5.7627037299597583e-01  -4.3378089993790198e-01  -2.9106837491813636e-01  -1.4815289000381304e-01  -5.0537695988858702e-03  1.3820926536154449e-01  2.8161556660339970e-01  4.2514337985327705e-01  5.6876986661825213e-01  7.1247124037984111e-01  8.5622296702220790e-01  1.0000000000000000e+00  </DataArray> 
</PointData> 
</Piece>
</UnstructuredGrid>
</VTKFile>