<?xml version="1.0"?>
<VTKFile type="UnstructuredGrid"  version="0.1"  >
<UnstructuredGrid>
<Piece  NumberOfPoints="441" NumberOfCells="800">
<Points>
<DataArray  type="Float64"  NumberOfComponents="3"  format="ascii">0 0 0  0.05 0 0  0.1 0 0  0.15 0 0  0.2 0 0  0.25 0 0  0.3 0 0  0.35 0 0  0.4 0 0  0.45 0 0  0.5 0 0  0.55 0 0  0.6 0 0  0.65 0 0  0.7 0 0  0.75 0 0  0.8 0 0  0.85 0 0  0.9 0 0  0.95 0 0  1 0 0  0 0.05 0  0.05 0.05 0  0.1 0.05 0  0.15 0.05 0  0.2 0.05 0  0.25 0.05 0  0.3 0.05 0  0.35 0.05 0  0.4 0.05 0  0.45 0.05 0  0.5 0.05 0  0.55 0.05 0  0.6 0.05 0  0.65 0.05 0  0.7 0.05 0  0.75 0.05 0  0.8 0.05 0  0.85 0.05 0  0.9 0.05 0  0.95 0.05 0  1 0.05 0  0 0.1 0  0.05 0.1 0  0.1 0.1 0  0.15 0.1 0  0.2 0.1 0  0.25 0.1 0  0.3 0.1 0  0.35 0.1 0  0.4 0.1 0  0.45 0.1 0  0.5 0.1 0  0.55 0.1 0  0.6 0.1 0  0.65 0.1 0  0.7 0.1 0  0.75 0.1 0  0.8 0.1 0  0.85 0.1 0  0.9 0.1 0  0.95 0.1 0  1 0.1 0  0 0.15 0  0.05 0.15 0  0.1 0.15 0  0.15 0.15 0  0.2 0.15 0  0.25 0.15 0  0.3 0.15 0  0.35 0.15 0  0.4 0.15 0  0.45 0.15 0  0.5 0.15 0  0.55 0.15 0  0.6 0.15 0  0.65 0.15 0  0.7 0.15 0  0.75 0.15 0  0.8 0.15 0  0.85 0.15 0  0.9 0.15 0  0.95 0.15 0  1 0.15 0  0 0.2 0  0.05 0.2 0  0.1 0.2 0  0.15 0.2 0  0.2 0.2 0  0.25 0.2 0  0.3 0.2 0  0.35 0.2 0  0.4 0.2 0  0.45 0.2 0  0.5 0.2 0  0.55 0.2 0  0.6 0.2 0  0.65 0.2 0  0.7 0.2 0  0.75 0.2 0  0.8 0.2 0  0.85 0.2 0  0.9 0.2 0  0.95 0.2 0  1 0.2 0  0 0.25 0  0.05 0.25 0  0.1 0.25 0  0.15 0.25 0  0.2 0.25 0  0.25 0.25 0  0.3 0.25 0  0.35 0.25 0  0.4 0.25 0  0.45 0.25 0  0.5 0.25 0  0.55 0.25 0  0.6 0.25 0  0.65 0.25 0  0.7 0.25 0  0.75 0.25 0  0.8 0.25 0  0.85 0.25 0  0.9 0.25 0  0.95 0.25 0  1 0.25 0  0 0.3 0  0.05 0.3 0  0.1 0.3 0  0.15 0.3 0  0.2 0.3 0  0.25 0.3 0  0.3 0.3 0  0.35 0.3 0  0.4 0.3 0  0.45 0.3 0  0.5 0.3 0  0.55 0.3 0  0.6 0.3 0  0.65 0.3 0  0.7 0.3 0  0.75 0.3 0  0.8 0.3 0  0.85 0.3 0  0.9 0.3 0  0.95 0.3 0  1 0.3 0  0 0.35 0  0.05 0.35 0  0.1 0.35 0  0.15 0.35 0  0.2 0.35 0  0.25 0.35 0  0.3 0.35 0  0.35 0.35 0  0.4 0.35 0  0.45 0.35 0  0.5 0.35 0  0.55 0.35 0  0.6 0.35 0  0.65 0.35 0  0.7 0.35 0  0.75 0.35 0  0.8 0.35 0  0.85 0.35 0  0.9 0.35 0  0.95 0.35 0  1 0.35 0  0 0.4 0  0.05 0.4 0  0.1 0.4 0  0.15 0.4 0  0.2 0.4 0  0.25 0.4 0  0.3 0.4 0  0.35 0.4 0  0.4 0.4 0  0.45 0.4 0  0.5 0.4 0  0.55 0.4 0  0.6 0.4 0  0.65 0.4 0  0.7 0.4 0  0.75 0.4 0  0.8 0.4 0  0.85 0.4 0  0.9 0.4 0  0.95 0.4 0  1 0.4 0  0 0.45 0  0.05 0.45 0  0.1 0.45 0  0.15 0.45 0  0.2 0.45 0  0.25 0.45 0  0.3 0.45 0  0.35 0.45 0  0.4 0.45 0  0.45 0.45 0  0.5 0.45 0  0.55 0.45 0  0.6 0.45 0  0.65 0.45 0  0.7 0.45 0  0.75 0.45 0  0.8 0.45 0  0.85 0.45 0  0.9 0.45 0  0.95 0.45 0  1 0.45 0  0 0.5 0  0.05 0.5 0  0.1 0.5 0  0.15 0.5 0  0.2 0.5 0  0.25 0.5 0  0.3 0.5 0  0.35 0.5 0  0.4 0.5 0  0.45 0.5 0  0.5 0.5 0  0.55 0.5 0  0.6 0.5 0  0.65 0.5 0  0.7 0.5 0  0.75 0.5 0  0.8 0.5 0  0.85 0.5 0  0.9 0.5 0  0.95 0.5 0  1 0.5 0  0 0.55 0  0.05 0.55 0  0.1 0.55 0  0.15 0.55 0  0.2 0.55 0  0.25 0.55 0  0.3 0.55 0  0.35 0.55 0  0.4 0.55 0  0.45 0.55 0  0.5 0.55 0  0.55 0.55 0  0.6 0.55 0  0.65 0.55 0  0.7 0.55 0  0.75 0.55 0  0.8 0.55 0  0.85 0.55 0  0.9 0.55 0  0.95 0.55 0  1 0.55 0  0 0.6 0  0.05 0.6 0  0.1 0.6 0  0.15 0.6 0  0.2 0.6 0  0.25 0.6 0  0.3 0.6 0  0.35 0.6 0  0.4 0.6 0  0.45 0.6 0  0.5 0.6 0  0.55 0.6 0  0.6 0.6 0  0.65 0.6 0  0.7 0.6 0  0.75 0.6 0  0.8 0.6 0  0.85 0.6 0  0.9 0.6 0  0.95 0.6 0  1 0.6 0  0 0.65 0  0.05 0.65 0  0.1 0.65 0  0.15 0.65 0  0.2 0.65 0  0.25 0.65 0  0.3 0.65 0  0.35 0.65 0  0.4 0.65 0  0.45 0.65 0  0.5 0.65 0  0.55 0.65 0  0.6 0.65 0  0.65 0.65 0  0.7 0.65 0  0.75 0.65 0  0.8 0.65 0  0.85 0.65 0  0.9 0.65 0  0.95 0.65 0  1 0.65 0  0 0.7 0  0.05 0.7 0  0.1 0.7 0  0.15 0.7 0  0.2 0.7 0  0.25 0.7 0  0.3 0.7 0  0.35 0.7 0  0.4 0.7 0  0.45 0.7 0  0.5 0.7 0  0.55 0.7 0  0.6 0.7 0  0.65 0.7 0  0.7 0.7 0  0.75 0.7 0  0.8 0.7 0  0.85 0.7 0  0.9 0.7 0  0.95 0.7 0  1 0.7 0  0 0.75 0  0.05 0.75 0  0.1 0.75 0  0.15 0.75 0  0.2 0.75 0  0.25 0.75 0  0.3 0.75 0  0.35 0.75 0  0.4 0.75 0  0.45 0.75 0  0.5 0.75 0  0.55 0.75 0  0.6 0.75 0  0.65 0.75 0  0.7 0.75 0  0.75 0.75 0  0.8 0.75 0  0.85 0.75 0  0.9 0.75 0  0.95 0.75 0  1 0.75 0  0 0.8 0  0.05 0.8 0  0.1 0.8 0  0.15 0.8 0  0.2 0.8 0  0.25 0.8 0  0.3 0.8 0  0.35 0.8 0  0.4 0.8 0  0.45 0.8 0  0.5 0.8 0  0.55 0.8 0  0.6 0.8 0  0.65 0.8 0  0.7 0.8 0  0.75 0.8 0  0.8 0.8 0  0.85 0.8 0  0.9 0.8 0  0.95 0.8 0  1 0.8 0  0 0.85 0  0.05 0.85 0  0.1 0.85 0  0.15 0.85 0  0.2 0.85 0  0.25 0.85 0  0.3 0.85 0  0.35 0.85 0  0.4 0.85 0  0.45 0.85 0  0.5 0.85 0  0.55 0.85 0  0.6 0.85 0  0.65 0.85 0  0.7 0.85 0  0.75 0.85 0  0.8 0.85 0  0.85 0.85 0  0.9 0.85 0  0.95 0.85 0  1 0.85 0  0 0.9 0  0.05 0.9 0  0.1 0.9 0  0.15 0.9 0  0.2 0.9 0  0.25 0.9 0  0.3 0.9 0  0.35 0.9 0  0.4 0.9 0  0.45 0.9 0  0.5 0.9 0  0.55 0.9 0  0.6 0.9 0  0.65 0.9 0  0.7 0.9 0  0.75 0.9 0  0.8 0.9 0  0.85 0.9 0  0.9 0.9 0  0.95 0.9 0  1 0.9 0  0 0.95 0  0.05 0.95 0  0.1 0.95 0  0.15 0.95 0  0.2 0.95 0  0.25 0.95 0  0.3 0.95 0  0.35 0.95 0  0.4 0.95 0  0.45 0.95 0  0.5 0.95 0  0.55 0.95 0  0.6 0.95 0  0.65 0.95 0  0.7 0.95 0  0.75 0.95 0  0.8 0.95 0  0.85 0.95 0  0.9 0.95 0  0.95 0.95 0  1 0.95 0  0 1 0  0.05 1 0  0.1 1 0  0.15 1 0  0.2 1 0  0.25 1 0  0.3 1 0  0.35 1 0  0.4 1 0  0.45 1 0  0.5 1 0  0.55 1 0  0.6 1 0  0.65 1 0  0.7 1 0  0.75 1 0  0.8 1 0  0.85 1 0  0.9 1 0  0.95 1 0  1 1 0  </DataArray>
</Points>
<Cells>
[...]
<PointData  Scalars="f_6"> 
<DataArray  type="Float64"  Name="f_6"  format="ascii">-2.0000000000000000e+00  -1.8499999999999999e+00  -1.7000000000000000e+00  -1.5500000000000000e+00  -1.4000000000000001e+00  -1.2500000000000000e+00  -1.0999999999999999e+00  -9.5000000000000007e-01  -7.9999999999999993e-01  -6.5000000000000013e-01  -5.0000000000000000e-01  -3.4999999999999987e-01  -2.0000000000000007e-01  -4.9999999999999933e-02  9.9999999999999867e-02  2.5000000000000000e-01  4.0000000000000013e-01  5.4999999999999993e-01  7.0000000000000007e-01  8.4999999999999987e-01  1.0000000000000000e+00  -2.0000000000000000e+00  -1.6573358700269951e+00  -1.4137834610690108e+00  -1.2221300064304397e+00  -1.0594960137474201e+00  -9.1409082308611866e-01  -7.7968793035280393e-01  -6.5287245462520971e-01  -5.3150105572177253e-01  -4.1383204517873401e-01  -2.9813117240299686e-01  -1.8261277352858649e-01  -6.5487360830356375e-02  5.5210629802781790e-02  1.8140441748046898e-01  3.1280446032582571e-01  4.4743602162420082e-01  5.8410756330989166e-01  7.2208738489601543e-01  8.6085688858145293e-01  1.0000000000000000e+00  -2.0000000000000000e+00  -1.5113004788443276e+00  -1.1900149635247161e+00  -9.6306657630011971e-01  -7.9028059117118721e-01  -6.4952775787732964e-01  -5.2857758548102673e-01  -4.2049605801085427e-01  -3.2097899810936747e-01  -2.2684929256092717e-01  -1.3532434746234359e-01  -4.3764474044136803e-02  5.0404924698062986e-02  1.4990867956801093e-01  2.5728026100888624e-01  3.7237740219863286e-01  4.9283206286108561e-01  6.1690684671935025e-01  7.4338508769271694e-01  8.7134016942979620e-01  1.0000000000000000e+00  -2.0000000000000000e+00  -1.3985296589416385e+00  -1.0152318682108090e+00  -7.5963841100047158e-01  -5.7871679326828829e-01  -4.4190628907132667e-01  -3.3175370176867547e-01  -2.3817484224056298e-01  -1.5499451921595306e-01  -7.7946829087443520e-02  -3.6273229917919221e-03  7.0979605908745844e-02  1.4872620340130258e-01  2.3255470400893663e-01  3.2515353291830712e-01  4.2659282459873393e-01  5.3460798090215800e-01  6.4730267301370681e-01  7.6320594972570499e-01  8.8111870144501492e-01  1.0000000000000000e+00  -2.0000000000000000e+00  -1.3112353994591825e+00  -8.7932435504524409e-01  -6.0102051838061610e-01  -4.1359426685814643e-01  -2.7981761341383066e-01  -1.7795075208107139e-01  -9.5292330818380358e-02  -2.4157408116359351e-02  4.0518108885421893e-02  1.0250482895603916e-01  1.6495659428612000e-01  2.3076879572567088e-01  3.0287432260472447e-01  3.8394561393325077e-01  4.7423238237583792e-01  5.7170436313510564e-01  6.7448991470761410e-01  7.8101733675138141e-01  8.8992868662455882e-01  1.0000000000000000e+00  -2.0000000000000000e+00  -1.2441675686898626e+00  -7.7469571515207791e-01  -4.7870182347855589e-01  -2.8610570196502622e-01  -1.5451330728359181e-01  -5.8799600022184484e-02  1.5810862090491380e-02  7.8171787061112150e-02  1.3392284577140795e-01  1.8705062826488722e-01  2.4073624411445943e-01  2.9782226589312305e-01  3.6114879647083703e-01  4.3331021849457574e-01  5.1468672783626146e-01  6.0348717455481249e-01  6.9793528593026222e-01  7.9644479594764783e-01  8.9757870830183872e-01  1.0000000000000000e+00  -2.0000000000000000e+00  -1.1935621440314901e+00  -6.9566092591997453e-01  -3.8618732522358795e-01  -1.8955017662343818e-01  -5.9446181700556676e-02  3.1833137720533589e-02  1.0064474986911719e-01  1.5671761080736699e-01  2.0610064208926404e-01  2.5290868583996184e-01  3.0030432645184957e-01  3.5104855985626754e-01  4.0787000004425511e-01  4.7327018522154779e-01  5.4771713591981985e-01  6.2962232131762041e-01  7.1731925851097400e-01  8.0924785280710931e-01  9.0394135063514736e-01  1.0000000000000000e+00  -2.0000000000000000e+00  -1.1566914853730117e+00  -6.3803360094538786e-01  -3.1866051499747283e-01  -1.1897833772956953e-01  1.0165005524949608e-02  9.8366191976599140e-02  1.6313515242591420e-01  2.1483045475140736e-01  2.5978482506547890e-01  3.0218944493944822e-01  3.4517513027642427e-01  3.9142405443461503e-01  4.4356388199809599e-01  5.0401101227089229e-01  5.7328930930385003e-01  6.4996571628487554e-01  7.3247157398890317e-01  8.1928600613466762e-01  9.0893884143164116e-01  1.0000000000000000e+00  -2.0000000000000000e+00  -1.1316234578836075e+00  -5.9883175746953810e-01  -2.7268505414155103e-01  -7.0872682449039048e-02  5.7692354811863383e-02  1.4388980757460063e-01  2.0601090775876260e-01  2.5483693512582717e-01  2.9688654479082605e-01  3.3639533115700981e-01  3.7646481276130006e-01  4.1971535160174628e-01  4.6869731899173978e-01  5.2576095873744300e-01  5.9146337273981309e-01  6.6447966052912810e-01  7.4331531502509529e-01  8.2648575631101640e-01  9.1252800895674901e-01  1.0000000000000000e+00  -2.0000000000000000e+00  -1.1170718966553597e+00  -5.7606717214530700e-01  -2.4597057636966327e-01  -4.2895976027000383e-02  8.5365464343419781e-02  1.7043711388885116e-01  2.3106204211766934e-01  2.7826457410332733e-01  3.1866869232641087e-01  3.5653320741579342e-01  3.9494006298227713e-01  4.3647096316421868e-01  4.8362838284339627e-01  5.3872110343769908e-01  6.0232356238883122e-01  6.7317423806672905e-01  7.4982426927133350e-01  8.3081369512755421e-01  9.1468743808433872e-01  1.0000000000000000e+00  -2.0000000000000000e+00  -1.1123011535125855e+00  -5.6860232963053647e-01  -2.3720767427795197e-01  -3.3714786573177620e-02  9.4452683487798908e-02  1.7916162430899860e-01  2.3930290204832744e-01  2.8598012158217184e-01  3.2585138420687820e-01  3.6318272380082478e-01  4.0104928333026263e-01  4.4201967388848662e-01  4.8858019890564203e-01  5.4302555638904981e-01  6.0593553531108413e-01  6.7606946007762436e-01  7.5199382886595478e-01  8.3225731684352855e-01  9.1540804825305111e-01  1.0000000000000000e+00  -2.0000000000000000e+00  -1.1170718966553597e+00  -5.7606717214530723e-01  -2.4597057636966327e-01  -4.2895976027000300e-02  8.5365464343419947e-02  1.7043711388885138e-01  2.3106204211766959e-01  2.7826457410332767e-01  3.1866869232641115e-01  3.5653320741579370e-01  3.9494006298227741e-01  4.3647096316421891e-01  4.8362838284339676e-01  5.3872110343769952e-01  6.0232356238883145e-01  6.7317423806672938e-01  7.4982426927133294e-01  8.3081369512755365e-01  9.1468743808433750e-01  1.0000000000000000e+00  -2.0000000000000000e+00  -1.1316234578836077e+00  -5.9883175746953843e-01  -2.7268505414155098e-01  -7.0872682449038923e-02  5.7692354811863654e-02  1.4388980757460090e-01  2.0601090775876302e-01  2.5483693512582761e-01  2.9688654479082655e-01  3.3639533115701015e-01  3.7646481276130062e-01  4.1971535160174678e-01  4.6869731899174016e-01  5.2576095873744344e-01  5.9146337273981342e-01  6.6447966052912844e-01  7.4331531502509485e-01  8.2648575631101595e-01  9.1252800895674835e-01  1.0000000000000000e+00  -2.0000000000000000e+00  -1.1566914853730119e+00  -6.3803360094538830e-01  -3.1866051499747283e-01  -1.1897833772956941e-01  1.0165005524949850e-02  9.8366191976599404e-02  1.6313515242591459e-01  2.1483045475140783e-01  2.5978482506547945e-01  3.0218944493944888e-01  3.4517513027642499e-01  3.9142405443461570e-01  4.4356388199809660e-01  5.0401101227089273e-01  5.7328930930385047e-01  6.4996571628487576e-01  7.3247157398890272e-01  8.1928600613466696e-01  9.0893884143164028e-01  1.0000000000000000e+00  -2.0000000000000000e+00  -1.1935621440314901e+00  -6.9566092591997475e-01  -3.8618732522358784e-01  -1.8955017662343801e-01  -5.9446181700556378e-02  3.1833137720533991e-02  1.0064474986911771e-01  1.5671761080736760e-01  2.0610064208926479e-01  2.5290868583996251e-01  3.0030432645185029e-01  3.5104855985626837e-01  4.0787000004425578e-01  4.7327018522154851e-01  5.4771713591982041e-01  6.2962232131762075e-01  7.1731925851097345e-01  8.0924785280710854e-01  9.0394135063514658e-01  1.0000000000000000e+00  -2.0000000000000000e+00  -1.2441675686898632e+00  -7.7469571515207825e-01  -4.7870182347855605e-01  -2.8610570196502622e-01  -1.5451330728359164e-01  -5.8799600022184234e-02  1.5810862090491765e-02  7.8171787061112594e-02  1.3392284577140853e-01  1.8705062826488777e-01  2.4073624411446001e-01  2.9782226589312366e-01  3.6114879647083775e-01  4.3331021849457635e-01  5.1468672783626190e-01  6.0348717455481271e-01  6.9793528593026177e-01  7.9644479594764739e-01  8.9757870830183795e-01  1.0000000000000000e+00  -2.0000000000000000e+00  -1.3112353994591828e+00  -8.7932435504524453e-01  -6.0102051838061665e-01  -4.1359426685814671e-01  -2.7981761341383071e-01  -1.7795075208107139e-01  -9.5292330818380233e-02  -2.4157408116359157e-02  4.0518108885422170e-02  1.0250482895603953e-01  1.6495659428612047e-01  2.3076879572567130e-01  3.0287432260472491e-01  3.8394561393325100e-01  4.7423238237583815e-01  5.7170436313510564e-01  6.7448991470761355e-01  7.8101733675138119e-01  8.8992868662455815e-01  1.0000000000000000e+00  -2.0000000000000000e+00  -1.3985296589416387e+00  -1.0152318682108088e+00  -7.5963841100047147e-01  -5.7871679326828840e-01  -4.4190628907132656e-01  -3.3175370176867525e-01  -2.3817484224056290e-01  -1.5499451921595281e-01  -7.7946829087443187e-02  -3.6273229917914897e-03  7.0979605908746302e-02  1.4872620340130299e-01  2.3255470400893705e-01  3.2515353291830751e-01  4.2659282459873421e-01  5.3460798090215811e-01  6.4730267301370648e-01  7.6320594972570477e-01  8.8111870144501470e-01  1.0000000000000000e+00  -2.0000000000000000e+00  -1.5113004788443272e+00  -1.1900149635247157e+00  -9.6306657630011983e-01  -7.9028059117118754e-01  -6.4952775787732997e-01  -5.2857758548102673e-01  -4.2049605801085449e-01  -3.2097899810936753e-01  -2.2684929256092723e-01  -1.3532434746234348e-01  -4.3764474044136636e-02  5.0404924698063160e-02  1.4990867956801113e-01  2.5728026100888640e-01  3.7237740219863291e-01  4.9283206286108544e-01  6.1690684671934970e-01  7.4338508769271627e-01  8.7134016942979575e-01  1.0000000000000000e+00  -2.0000000000000000e+00  -1.6573358700269951e+00  -1.4137834610690105e+00  -1.2221300064304395e+00  -1.0594960137474201e+00  -9.1409082308611778e-01  -7.7968793035280370e-01  -6.5287245462520993e-01  -5.3150105572177264e-01  -4.1383204517873390e-01  -2.9813117240299658e-01  -1.8261277352858624e-01  -6.5487360830356181e-02  5.5210629802781984e-02  1.8140441748046918e-01  3.1280446032582582e-01  4.4743602162420087e-01  5.8410756330989144e-01  7.2208738489601521e-01  8.6085688858145271e-01  1.0000000000000000e+00  -2.0000000000000000e+00  -1.8499999999999999e+00  -1.7000000000000000e+00  -1.5500000000000000e+00  -1.4000000000000001e+00  -1.2500000000000000e+00  -1.0999999999999999e+00  -9.5000000000000018e-01  -7.9999999999999993e-01  -6.5000000000000013e-01  -4.9999999999999994e-01  -3.4999999999999987e-01  -2.0000000000000007e-01  -4.9999999999999933e-02  9.9999999999999867e-02  2.5000000000000000e-01  4.0000000000000013e-01  5.4999999999999993e-01  7.0000000000000007e-01  8.4999999999999987e-01  1.0000000000000000e+00  </DataArray> 
</PointData> 
</Piece>
</UnstructuredGrid>
</VTKFile>