<?xml version="1.0"?>
<VTKFile type="UnstructuredGrid"  version="0.1"  >
<UnstructuredGrid>
<Piece  NumberOfPoints="441" NumberOfCells="800">
<Points>
<DataArray  type="Float64"  NumberOfComponents="3"  format="ascii">0 0 0  0.05 0 0  0.1 0 0  0.15 0 0  0.2 0 0  0.25 0 0  0.3 0 0  0.35 0 0  0.4 0 0  0.45 0 0  0.5 0 0  0.55 0 0  0.6 0 0  0.65 0 0  0.7 0 0  0.75 0 0  0.8 0 0  0.85 0 0  0.9 0 0  0.95 0 0  1 0 0  0 0.05 0  0.05 0.05 0  0.1 0.05 0  0.15 0.05 0  0.2 0.05 0  0.25 0.05 0  0.3 0.05 0  0.35 0.05 0  0.4 0.05 0  0.45 0.05 0  0.5 0.05 0  0.55 0.05 0  0.6 0.05 0  0.65 0.05 0  0.7 0.05 0  0.75 0.05 0  0.8 0.05 0  0.85 0.05 0  0.9 0.05 0  0.95 0.05 0  1 0.05 0  0 0.1 0  0.05 0.1 0  0.1 0.1 0  0.15 0.1 0  0.2 0.1 0  0.25 0.1 0  0.3 0.1 0  0.35 0.1 0  0.4 0.1 0  0.45 0.1 0  0.5 0.1 0  0.55 0.1 0  0.6 0.1 0  0.65 0.1 0  0.7 0.1 0  0.75 0.1 0  0.8 0.1 0  0.85 0.1 0  0.9 0.1 0  0.95 0.1 0  1 0.1 0  0 0.15 0  0.05 0.15 0  0.1 0.15 0  0.15 0.15 0  0.2 0.15 0  0.25 0.15 0  0.3 0.15 0  0.35 0.15 0  0.4 0.15 0  0.45 0.15 0  0.5 0.15 0  0.55 0.15 0  0.6 0.15 0  0.65 0.15 0  0.7 0.15 0  0.75 0.15 0  0.8 0.15 0  0.85 0.15 0  0.9 0.15 0  0.95 0.15 0  1 0.15 0  0 0.2 0  0.05 0.2 0  0.1 0.2 0  0.15 0.2 0  0.2 0.2 0  0.25 0.2 0  0.3 0.2 0  0.35 0.2 0  0.4 0.2 0  0.45 0.2 0  0.5 0.2 0  0.55 0.2 0  0.6 0.2 0  0.65 0.2 0  0.7 0.2 0  0.75 0.2 0  0.8 0.2 0  0.85 0.2 0  0.9 0.2 0  0.95 0.2 0  1 0.2 0  0 0.25 0  0.05 0.25 0  0.1 0.25 0  0.15 0.25 0  0.2 0.25 0  0.25 0.25 0  0.3 0.25 0  0.35 0.25 0  0.4 0.25 0  0.45 0.25 0  0.5 0.25 0  0.55 0.25 0  0.6 0.25 0  0.65 0.25 0  0.7 0.25 0  0.75 0.25 0  0.8 0.25 0  0.85 0.25 0  0.9 0.25 0  0.95 0.25 0  1 0.25 0  0 0.3 0  0.05 0.3 0  0.1 0.3 0  0.15 0.3 0  0.2 0.3 0  0.25 0.3 0  0.3 0.3 0  0.35 0.3 0  0.4 0.3 0  0.45 0.3 0  0.5 0.3 0  0.55 0.3 0  0.6 0.3 0  0.65 0.3 0  0.7 0.3 0  0.75 0.3 0  0.8 0.3 0  0.85 0.3 0  0.9 0.3 0  0.95 0.3 0  1 0.3 0  0 0.35 0  0.05 0.35 0  0.1 0.35 0  0.15 0.35 0  0.2 0.35 0  0.25 0.35 0  0.3 0.35 0  0.35 0.35 0  0.4 0.35 0  0.45 0.35 0  0.5 0.35 0  0.55 0.35 0  0.6 0.35 0  0.65 0.35 0  0.7 0.35 0  0.75 0.35 0  0.8 0.35 0  0.85 0.35 0  0.9 0.35 0  0.95 0.35 0  1 0.35 0  0 0.4 0  0.05 0.4 0  0.1 0.4 0  0.15 0.4 0  0.2 0.4 0  0.25 0.4 0  0.3 0.4 0  0.35 0.4 0  0.4 0.4 0  0.45 0.4 0  0.5 0.4 0  0.55 0.4 0  0.6 0.4 0  0.65 0.4 0  0.7 0.4 0  0.75 0.4 0  0.8 0.4 0  0.85 0.4 0  0.9 0.4 0  0.95 0.4 0  1 0.4 0  0 0.45 0  0.05 0.45 0  0.1 0.45 0  0.15 0.45 0  0.2 0.45 0  0.25 0.45 0  0.3 0.45 0  0.35 0.45 0  0.4 0.45 0  0.45 0.45 0  0.5 0.45 0  0.55 0.45 0  0.6 0.45 0  0.65 0.45 0  0.7 0.45 0  0.75 0.45 0  0.8 0.45 0  0.85 0.45 0  0.9 0.45 0  0.95 0.45 0  1 0.45 0  0 0.5 0  0.05 0.5 0  0.1 0.5 0  0.15 0.5 0  0.2 0.5 0  0.25 0.5 0  0.3 0.5 0  0.35 0.5 0  0.4 0.5 0  0.45 0.5 0  0.5 0.5 0  0.55 0.5 0  0.6 0.5 0  0.65 0.5 0  0.7 0.5 0  0.75 0.5 0  0.8 0.5 0  0.85 0.5 0  0.9 0.5 0  0.95 0.5 0  1 0.5 0  0 0.55 0  0.05 0.55 0  0.1 0.55 0  0.15 0.55 0  0.2 0.55 0  0.25 0.55 0  0.3 0.55 0  0.35 0.55 0  0.4 0.55 0  0.45 0.55 0  0.5 0.55 0  0.55 0.55 0  0.6 0.55 0  0.65 0.55 0  0.7 0.55 0  0.75 0.55 0  0.8 0.55 0  0.85 0.55 0  0.9 0.55 0  0.95 0.55 0  1 0.55 0  0 0.6 0  0.05 0.6 0  0.1 0.6 0  0.15 0.6 0  0.2 0.6 0  0.25 0.6 0  0.3 0.6 0  0.35 0.6 0  0.4 0.6 0  0.45 0.6 0  0.5 0.6 0  0.55 0.6 0  0.6 0.6 0  0.65 0.6 0  0.7 0.6 0  0.75 0.6 0  0.8 0.6 0  0.85 0.6 0  0.9 0.6 0  0.95 0.6 0  1 0.6 0  0 0.65 0  0.05 0.65 0  0.1 0.65 0  0.15 0.65 0  0.2 0.65 0  0.25 0.65 0  0.3 0.65 0  0.35 0.65 0  0.4 0.65 0  0.45 0.65 0  0.5 0.65 0  0.55 0.65 0  0.6 0.65 0  0.65 0.65 0  0.7 0.65 0  0.75 0.65 0  0.8 0.65 0  0.85 0.65 0  0.9 0.65 0  0.95 0.65 0  1 0.65 0  0 0.7 0  0.05 0.7 0  0.1 0.7 0  0.15 0.7 0  0.2 0.7 0  0.25 0.7 0  0.3 0.7 0  0.35 0.7 0  0.4 0.7 0  0.45 0.7 0  0.5 0.7 0  0.55 0.7 0  0.6 0.7 0  0.65 0.7 0  0.7 0.7 0  0.75 0.7 0  0.8 0.7 0  0.85 0.7 0  0.9 0.7 0  0.95 0.7 0  1 0.7 0  0 0.75 0  0.05 0.75 0  0.1 0.75 0  0.15 0.75 0  0.2 0.75 0  0.25 0.75 0  0.3 0.75 0  0.35 0.75 0  0.4 0.75 0  0.45 0.75 0  0.5 0.75 0  0.55 0.75 0  0.6 0.75 0  0.65 0.75 0  0.7 0.75 0  0.75 0.75 0  0.8 0.75 0  0.85 0.75 0  0.9 0.75 0  0.95 0.75 0  1 0.75 0  0 0.8 0  0.05 0.8 0  0.1 0.8 0  0.15 0.8 0  0.2 0.8 0  0.25 0.8 0  0.3 0.8 0  0.35 0.8 0  0.4 0.8 0  0.45 0.8 0  0.5 0.8 0  0.55 0.8 0  0.6 0.8 0  0.65 0.8 0  0.7 0.8 0  0.75 0.8 0  0.8 0.8 0  0.85 0.8 0  0.9 0.8 0  0.95 0.8 0  1 0.8 0  0 0.85 0  0.05 0.85 0  0.1 0.85 0  0.15 0.85 0  0.2 0.85 0  0.25 0.85 0  0.3 0.85 0  0.35 0.85 0  0.4 0.85 0  0.45 0.85 0  0.5 0.85 0  0.55 0.85 0  0.6 0.85 0  0.65 0.85 0  0.7 0.85 0  0.75 0.85 0  0.8 0.85 0  0.85 0.85 0  0.9 0.85 0  0.95 0.85 0  1 0.85 0  0 0.9 0  0.05 0.9 0  0.1 0.9 0  0.15 0.9 0  0.2 0.9 0  0.25 0.9 0  0.3 0.9 0  0.35 0.9 0  0.4 0.9 0  0.45 0.9 0  0.5 0.9 0  0.55 0.9 0  0.6 0.9 0  0.65 0.9 0  0.7 0.9 0  0.75 0.9 0  0.8 0.9 0  0.85 0.9 0  0.9 0.9 0  0.95 0.9 0  1 0.9 0  0 0.95 0  0.05 0.95 0  0.1 0.95 0  0.15 0.95 0  0.2 0.95 0  0.25 0.95 0  0.3 0.95 0  0.35 0.95 0  0.4 0.95 0  0.45 0.95 0  0.5 0.95 0  0.55 0.95 0  0.6 0.95 0  0.65 0.95 0  0.7 0.95 0  0.75 0.95 0  0.8 0.95 0  0.85 0.95 0  0.9 0.95 0  0.95 0.95 0  1 0.95 0  0 1 0  0.05 1 0  0.1 1 0  0.15 1 0  0.2 1 0  0.25 1 0  0.3 1 0  0.35 1 0  0.4 1 0  0.45 1 0  0.5 1 0  0.55 1 0  0.6 1 0  0.65 1 0  0.7 1 0  0.75 1 0  0.8 1 0  0.85 1 0  0.9 1 0  0.95 1 0  1 1 0  </DataArray>
</Points>
<Cells>
[...]
<PointData  Scalars="f_6"> 
<DataArray  type="Float64"  Name="f_6"  format="ascii">-2.0000000000000000e+00  -1.8499999999999999e+00  -1.7000000000000000e+00  -1.5500000000000000e+00  -1.4000000000000001e+00  -1.2500000000000000e+00  -1.0999999999999999e+00  -9.5000000000000007e-01  -7.9999999999999993e-01  -6.5000000000000013e-01  -5.0000000000000000e-01  -3.4999999999999987e-01  -2.0000000000000007e-01  -4.9999999999999933e-02  9.9999999999999867e-02  2.5000000000000000e-01  4.0000000000000013e-01  5.4999999999999993e-01  7.0000000000000007e-01  8.4999999999999987e-01  1.0000000000000000e+00  -2.0000000000000000e+00  -1.7573803138595125e+00  -1.6140098450847646e+00  -1.4831336806488551e+00  -1.3482110262702949e+00  -1.2092240179985494e+00  -1.0679659420524323e+00  -9.2637316824325266e-01  -7.8333008232943324e-01  -6.3788896290851993e-01  -4.9069869746153155e-01  -3.4255196862130671e-01  -1.9391037924790452e-01  -4.4994582946623590e-02  1.0408897632707861e-01  2.5328294081736857e-01  4.0255249921197728e-01  5.5187433424599608e-01  7.0123145497717054e-01  8.5061047540187718e-01  1.0000000000000000e+00  -2.0000000000000000e+00  -1.7445767450203644e+00  -1.6018563514131083e+00  -1.4686745522996549e+00  -1.3338836771615590e+00  -1.1963340376695548e+00  -1.0566097435256980e+00  -9.1545241357552809e-01  -7.7275563884030707e-01  -6.2833337356094021e-01  -4.8247121337904070e-01  -3.3560860234314077e-01  -1.8809529000717731e-01  -4.0156930432848119e-02  1.0806754743756671e-01  2.5649028773041860e-01  4.0505272178454399e-01  5.5371338279483684e-01  7.0244101026080807e-01  8.5121044663033896e-01  1.0000000000000000e+00  -2.0000000000000000e+00  -1.7352362616642596e+00  -1.5976624191886506e+00  -1.4621546823946541e+00  -1.3256710379356973e+00  -1.1875390538705959e+00  -1.0477881277815000e+00  -9.0663518627270789e-01  -7.6412316167136529e-01  -6.2027220969288066e-01  -4.7525205766723272e-01  -3.2931645529750353e-01  -1.8270525671037074e-01  -3.5605396219532501e-02  1.1184785612561807e-01  2.5955794088219503e-01  4.0745471740094308e-01  5.5548546488799966e-01  7.0360875664088618e-01  8.5179030085867102e-01  1.0000000000000000e+00  -1.9999999999999998e+00  -1.7302368269866661e+00  -1.5936395880313468e+00  -1.4568192779366600e+00  -1.3191899142313772e+00  -1.1804134558749664e+00  -1.0404027328938075e+00  -8.9919756625458869e-01  -7.5683838629996303e-01  -6.1338246161066690e-01  -4.6894861772313323e-01  -3.2369991446171148e-01  -1.7780388535104805e-01  -3.1407253860529546e-02  1.1537133240224350e-01  2.6243890227180056e-01  4.0972274204903353e-01  5.5716500271533298e-01  7.0471825055606574e-01  8.5234200016345929e-01  1.0000000000000000e+00  -2.0000000000000000e+00  -1.7271509724624081e+00  -1.5900115320381876e+00  -1.4522983160785519e+00  -1.3138575572202160e+00  -1.1745231518529986e+00  -1.0342125285824544e+00  -8.9291442562375134e-01  -7.5065054664984576e-01  -6.0747067165472735e-01  -4.6346003978639355e-01  -3.1873069949704547e-01  -1.7340311637158001e-01  -2.7591066273781516e-02  1.1860582507208528e-01  2.6510359375373033e-01  4.1183234580805733e-01  5.5873355336823327e-01  7.0575724270458473e-01  8.5285944923910073e-01  1.0000000000000000e+00  -2.0000000000000000e+00  -1.7249111402154225e+00  -1.5869694573368429e+00  -1.4485049845192939e+00  -1.3094188645582954e+00  -1.1696090757506692e+00  -1.0290098108917156e+00  -8.8759706481114775e-01  -7.4537870414375085e-01  -6.0238963867889783e-01  -4.5869017027173548e-01  -3.1435972736849754e-01  -1.6948681436444477e-01  -2.4159719935102082e-02  1.2153944040614895e-01  2.6753730186297831e-01  4.1376949406123226e-01  5.6017962224495788e-01  7.0671771765493940e-01  8.5333855408835968e-01  1.0000000000000000e+00  -2.0000000000000000e+00  -1.7231461953506331e+00  -1.5844508782034379e+00  -1.4453333004729789e+00  -1.3057038407739932e+00  -1.1654844757116747e+00  -1.0246205744282808e+00  -8.8308531858691486e-01  -7.4087756643521174e-01  -5.9801900864537716e-01  -4.5455127525315309e-01  -3.1053122534076472e-01  -1.6602469378259918e-01  -2.1100439508331261e-02  1.2417435462463461e-01  2.6973667923080119e-01  4.1552870632893563e-01  5.6149772389542640e-01  7.0759545158185544e-01  8.5377704945939803e-01  1.0000000000000000e+00  -2.0000000000000000e+00  -1.7217021753409194e+00  -1.5823545873617879e+00  -1.4426734983951999e+00  -1.3025787223530256e+00  -1.1620044118937551e+00  -1.0209026925228186e+00  -8.7924606867301958e-01  -7.3702723436480322e-01  -5.9425755421424620e-01  -4.5096469675473505e-01  -3.0718920495880919e-01  -1.6298029591685581e-01  -1.8391698940258598e-02  1.2652173836991987e-01  2.7170635410665672e-01  4.1711092812828215e-01  5.6268711542595728e-01  7.0838931531765814e-01  8.5417419216737744e-01  1.0000000000000000e+00  -2.0000000000000000e+00  -1.7204954161135559e+00  -1.5805917980420787e+00  -1.4404273833930077e+00  -1.2999331383491552e+00  -1.1590517569875012e+00  -1.0177397150962191e+00  -8.7596902921754094e-01  -7.3372774813673569e-01  -5.9101927709206925e-01  -4.4786075259273161e-01  -3.0428060182288125e-01  -1.6031558598575604e-01  -1.6007798705767445e-02  1.2859794368864699e-01  2.7345607069762351e-01  4.1852153665157871e-01  5.6375049436246250e-01  7.0910050209544229e-01  8.5453040389245405e-01  1.0000000000000000e+00  -1.9999999999999998e+00  -1.7194690939443278e+00  -1.5790898053022162e+00  -1.4385110987855962e+00  -1.2976746906630883e+00  -1.1565297626108755e+00  -1.0150353816570150e+00  -8.7316258496418986e-01  -7.3089545187253036e-01  -5.8823105342456317e-01  -4.4517843470124113e-01  -3.0175686375422844e-01  -1.5799364749751926e-01  -1.3921853585702457e-02  1.3042176439281222e-01  2.7499844834361242e-01  4.1976865341794628e-01  5.6469282327687198e-01  7.0973179480919424e-01  8.5484692130699680e-01  1.0000000000000000e+00  -2.0000000000000000e+00  -1.7185782160434280e+00  -1.5777872304368612e+00  -1.4368525157840748e+00  -1.2957247629067268e+00  -1.1543572211358972e+00  -1.0127094639567757e+00  -8.7075047710967346e-01  -7.2846042096463348e-01  -5.8583105003241176e-01  -4.4286506903344103e-01  -2.9957477099527241e-01  -1.5598028666439004e-01  -1.2107732532335606e-02  1.3201251912469231e-01  2.7634730486606784e-01  4.2086180539972190e-01  5.6552035051788563e-01  7.1028693255746611e-01  8.5512548652633857e-01  1.0000000000000000e+00  -2.0000000000000000e+00  -1.7177822884050538e+00  -1.5766283846177263e+00  -1.4353869710071154e+00  -1.2940146240438473e+00  -1.1524648950692102e+00  -1.0106947759245180e+00  -8.6866943855309442e-01  -7.2636470484391991e-01  -5.8376765670700903e-01  -4.4087602040483903e-01  -2.9769686452903044e-01  -1.5424499563243257e-01  -1.0541309003942524e-02  1.3338873977222512e-01  2.7751644659624469e-01  4.2181091279698746e-01  5.6623984083748324e-01  7.1077009837644656e-01  8.5536809224089116e-01  1.0000000000000000e+00  -2.0000000000000000e+00  -1.7170392530346761e+00  -1.5755570486218757e+00  -1.4340523595828130e+00  -1.2924818671923368e+00  -1.1507929591725783e+00  -1.0089353061189921e+00  -8.6686779633426536e-01  -7.2456130315094325e-01  -5.8199885154686593e-01  -4.3917449134987563e-01  -2.9609167108357803e-01  -1.5276152233236712e-01  -9.2012476232273804e-03  1.3456730237190648e-01  2.7851882894969815e-01  4.2262555835449994e-01  5.6685800165861400e-01  7.1118552786994560e-01  8.5557678406078008e-01  1.0000000000000000e+00  -2.0000000000000000e+00  -1.7162972464641013e+00  -1.5745081972522863e+00  -1.4327835515099241e+00  -1.2910675259701099e+00  -1.1492897683097736e+00  -1.0073856930446063e+00  -8.6530513751403193e-01  -7.2301385987872213e-01  -5.8049195497963579e-01  -4.3773142236421958e-01  -2.9473380612303929e-01  -1.5150817499023028e-01  -8.0694615285066499e-03  1.3556288838893027e-01  2.7936600847614157e-01  4.2331449001269983e-01  5.6738107957252759e-01  7.1153722738394143e-01  8.5575351613228379e-01  1.0000000000000000e+00  -1.9999999999999998e+00  -1.7154792755521009e+00  -1.5733949424132465e+00  -1.4315061232344888e+00  -1.2897149168684052e+00  -1.1479128950518009e+00  -1.0060125602356282e+00  -8.6395320079853344e-01  -7.2169704387027789e-01  -5.7922368612873498e-01  -4.3652543700432750e-01  -2.9360395605412987e-01  -1.5046790997700757e-01  -7.1313118894994762e-03  1.3638770423618016e-01  2.8006782655323792e-01  4.2388531364763005e-01  5.6781459923485544e-01  7.1182878596100885e-01  8.5590005308441497e-01  1.0000000000000000e+00  -2.0000000000000000e+00  -1.7144488952743968e+00  -1.5720861736141096e+00  -1.4301310821463804e+00  -1.2883731232172206e+00  -1.1466343347933954e+00  -1.0047984520475717e+00  -8.6279806157419481e-01  -7.2059742867512100e-01  -5.7818030866069947e-01  -4.3554268347022579e-01  -2.9268867111214558e-01  -1.4962819697417029e-01  -6.3755802886641599e-03  1.3705141389205233e-01  2.8063227985299971e-01  4.2434433878972694e-01  5.6816321775825562e-01  7.1206326414082322e-01  8.5601791024436746e-01  1.0000000000000000e+00  -2.0000000000000000e+00  -1.7129219398268523e+00  -1.5703697746224152e+00  -1.4285589085197019e+00  -1.2870121590607031e+00  -1.1454528688569872e+00  -1.0037488515870681e+00  -8.6184316477555323e-01  -7.1971430059531227e-01  -5.7735743636871606e-01  -4.3477631710373071e-01  -2.9197984795005671e-01  -1.4898062651886360e-01  -5.7942261830395501e-03  1.3756125176769393e-01  2.8106554017698182e-01  4.2469654390002232e-01  5.6843066886761684e-01  7.1224314259966059e-01  8.5610832375223256e-01  1.0000000000000000e+00  -2.0000000000000000e+00  -1.7102095628373397e+00  -1.5679120765289987e+00  -1.4267226182493080e+00  -1.2856637356489029e+00  -1.1444161299867823e+00  -1.0029009206681607e+00  -8.6111144534563755e-01  -7.1905917256185925e-01  -5.7675881911512128e-01  -4.3422530062592490e-01  -2.9147377706548716e-01  -1.4852023496818753e-01  -5.3819496923247197e-03  1.3792227918478148e-01  2.8137208518721118e-01  4.2494562776576361e-01  5.6861977121252938e-01  7.1237031363796999e-01  8.5617224216490317e-01  1.0000000000000000e+00  -2.0000000000000000e+00  -1.7043787148981735e+00  -1.5643463504069310e+00  -1.4247557522996297e+00  -1.2845040352988186e+00  -1.1436469947730779e+00  -1.0023272557531548e+00  -8.6064252337697733e-01  -7.1865212519136623e-01  -5.7639336690398491e-01  -4.3389228921936046e-01  -2.9116972471777963e-01  -1.4824458659607445e-01  -5.1356168028535718e-03  1.3813772947654593e-01  2.8155489362131786e-01  4.2509411076329146e-01  5.6873247457876741e-01  7.1244609857478658e-01  8.5621033126941104e-01  1.0000000000000000e+00  -2.0000000000000000e+00  -1.6892127255463718e+00  -1.5603388579009241e+00  -1.4234500052434618e+00  -1.2839496584736636e+00  -1.1433405580535558e+00  -1.0021185841944038e+00  -8.6047926721775059e-01  -7.1851343792264355e-01  -5.7627023409009159e-01  -4.3378076462975240e-01  -2.9106824599019704e-01  -1.4815276989547690e-01  -5.0536603995613274e-03  1.3820936190293825e-01  2.8161564905822278e-01  4.2514344708731716e-01  5.6876991776446262e-01  7.1247127481299788e-01  8.5622298433795530e-01  1.0000000000000000e+00  </DataArray> 
</PointData> 
</Piece>
</UnstructuredGrid>
</VTKFile>