<?xml version="1.0"?>
<VTKFile type="UnstructuredGrid"  version="0.1"  >
<UnstructuredGrid>
<Piece  NumberOfPoints="4225" NumberOfCells="8192">
<Points>
<DataArray  type="Float64"  NumberOfComponents="3"  format="ascii">0 0 0  0.015625 0 0  0.03125 0 0  0.046875 0 0  0.0625 0 0  0.078125 0 0  0.09375 0 0  0.109375 0 0  0.125 0 0  0.140625 0 0  0.15625 0 0  0.171875 0 0  0.1875 0 0  0.203125 0 0  0.21875 0 0  0.234375 0 0  0.25 0 0  0.265625 0 0  0.28125 0 0  0.296875 0 0  0.3125 0 0  0.328125 0 0  0.34375 0 0  0.359375 0 0  0.375 0 0  0.390625 0 0  0.40625 0 0  0.421875 0 0  0.4375 0 0  0.453125 0 0  0.46875 0 0  0.484375 0 0  0.5 0 0  0.515625 0 0  0.53125 0 0  0.546875 0 0  0.5625 0 0  0.578125 0 0  0.59375 0 0  0.609375 0 0  0.625 0 0  0.640625 0 0  0.65625 0 0  0.671875 0 0  0.6875 0 0  0.703125 0 0  0.71875 0 0  0.734375 0 0  0.75 0 0  0.765625 0 0  0.78125 0 0  0.796875 0 0  0.8125 0 0  0.828125 0 0  0.84375 0 0  0.859375 0 0  0.875 0 0  0.890625 0 0  0.90625 0 0  0.921875 0 0  0.9375 0 0  0.953125 0 0  0.96875 0 0  0.984375 0 0  1 0 0  0 0.015625 0  0.015625 0.015625 0  0.03125 0.015625 0  0.046875 0.015625 0  0.0625 0.015625 0  0.078125 0.015625 0  0.09375 0.015625 0  0.109375 0.015625 0  0.125 0.015625 0  0.140625 0.015625 0  0.15625 0.015625 0  0.171875 0.015625 0  0.1875 0.015625 0  0.203125 0.015625 0  0.21875 0.015625 0  0.234375 0.015625 0  0.25 0.015625 0  0.265625 0.015625 0  0.28125 0.015625 0  0.296875 0.015625 0  0.3125 0.015625 0  0.328125 0.015625 0  0.34375 0.015625 0  0.359375 0.015625 0  0.375 0.015625 0  0.390625 0.015625 0  0.40625 0.015625 0  0.421875 0.015625 0  0.4375 0.015625 0  0.453125 0.015625 0  0.46875 0.015625 0  0.484375 0.015625 0  0.5 0.015625 0  0.515625 0.015625 0  0.53125 0.015625 0  0.546875 0.015625 0  0.5625 0.015625 0  0.578125 0.015625 0  0.59375 0.015625 0  0.609375 0.015625 0  0.625 0.015625 0  0.640625 0.015625 0  0.65625 0.015625 0  0.671875 0.015625 0  0.6875 0.015625 0  0.703125 0.015625 0  0.71875 0.015625 0  0.734375 0.015625 0  0.75 0.015625 0  0.765625 0.015625 0  0.78125 0.015625 0  0.796875 0.015625 0  0.8125 0.015625 0  0.828125 0.015625 0  0.84375 0.015625 0  0.859375 0.015625 0  0.875 0.015625 0  0.890625 0.015625 0  0.90625 0.015625 0  0.921875 0.015625 0  0.9375 0.015625 0  0.953125 0.015625 0  0.96875 0.015625 0  0.984375 0.015625 0  1 0.015625 0  0 0.03125 0  0.015625 0.03125 0  0.03125 0.03125 0  0.046875 0.03125 0  0.0625 0.03125 0  0.078125 0.03125 0  0.09375 0.03125 0  0.109375 0.03125 0  0.125 0.03125 0  0.140625 0.03125 0  0.15625 0.03125 0  0.171875 0.03125 0  0.1875 0.03125 0  0.203125 0.03125 0  0.21875 0.03125 0  0.234375 0.03125 0  0.25 0.03125 0  0.265625 0.03125 0  0.28125 0.03125 0  0.296875 0.03125 0  0.3125 0.03125 0  0.328125 0.03125 0  0.34375 0.03125 0  0.359375 0.03125 0  0.375 0.03125 0  0.390625 0.03125 0  0.40625 0.03125 0  0.421875 0.03125 0  0.4375 0.03125 0  0.453125 0.03125 0  0.46875 0.03125 0  0.484375 0.03125 0  0.5 0.03125 0  0.515625 0.03125 0  0.53125 0.03125 0  0.546875 0.03125 0  0.5625 0.03125 0  0.578125 0.03125 0  0.59375 0.03125 0  0.609375 0.03125 0  0.625 0.03125 0  0.640625 0.03125 0  0.65625 0.03125 0  0.671875 0.03125 0  0.6875 0.03125 0  0.703125 0.03125 0  0.71875 0.03125 0  0.734375 0.03125 0  0.75 0.03125 0  0.765625 0.03125 0  0.78125 0.03125 0  0.796875 0.03125 0  0.8125 0.03125 0  0.828125 0.03125 0  0.84375 0.03125 0  0.859375 0.03125 0  0.875 0.03125 0  0.890625 0.03125 0  0.90625 0.03125 0  0.921875 0.03125 0  0.9375 0.03125 0  0.953125 0.03125 0  0.96875 0.03125 0  0.984375 0.03125 0  1 0.03125 0  0 0.046875 0  0.015625 0.046875 0  0.03125 0.046875 0  0.046875 0.046875 0  0.0625 0.046875 0  0.078125 0.046875 0  0.09375 0.046875 0  0.109375 0.046875 0  0.125 0.046875 0  0.140625 0.046875 0  0.15625 0.046875 0  0.171875 0.046875 0  0.1875 0.046875 0  0.203125 0.046875 0  0.21875 0.046875 0  0.234375 0.046875 0  0.25 0.046875 0  0.265625 0.046875 0  0.28125 0.046875 0  0.296875 0.046875 0  0.3125 0.046875 0  0.328125 0.046875 0  0.34375 0.046875 0  0.359375 0.046875 0  0.375 0.046875 0  0.390625 0.046875 0  0.40625 0.046875 0  0.421875 0.046875 0  0.4375 0.046875 0  0.453125 0.046875 0  0.46875 0.046875 0  0.484375 0.046875 0  0.5 0.046875 0  0.515625 0.046875 0  0.53125 0.046875 0  0.546875 0.046875 0  0.5625 0.046875 0  0.578125 0.046875 0  0.59375 0.046875 0  0.609375 0.046875 0  0.625 0.046875 0  0.640625 0.046875 0  0.65625 0.046875 0  0.671875 0.046875 0  0.6875 0.046875 0  0.703125 0.046875 0  0.71875 0.046875 0  0.734375 0.046875 0  0.75 0.046875 0  0.765625 0.046875 0  0.78125 0.046875 0  0.796875 0.046875 0  0.8125 0.046875 0  0.828125 0.046875 0  0.84375 0.046875 0  0.859375 0.046875 0  0.875 0.046875 0  0.890625 0.046875 0  0.90625 0.046875 0  0.921875 0.046875 0  0.9375 0.046875 0  0.953125 0.046875 0  0.96875 0.046875 0  0.984375 0.046875 0  1 0.046875 0  0 0.0625 0  0.015625 0.0625 0  0.03125 0.0625 0  0.046875 0.0625 0  0.0625 0.0625 0  0.078125 0.0625 0  0.09375 0.0625 0  0.109375 0.0625 0  0.125 0.0625 0  0.140625 0.0625 0  0.15625 0.0625 0  0.171875 0.0625 0  0.1875 0.0625 0  0.203125 0.0625 0  0.21875 0.0625 0  0.234375 0.0625 0  0.25 0.0625 0  0.265625 0.0625 0  0.28125 0.0625 0  0.296875 0.0625 0  0.3125 0.0625 0  0.328125 0.0625 0  0.34375 0.0625 0  0.359375 0.0625 0  0.375 0.0625 0  0.390625 0.0625 0  0.40625 0.0625 0  0.421875 0.0625 0  0.4375 0.0625 0  0.453125 0.0625 0  0.46875 0.0625 0  0.484375 0.0625 0  0.5 0.0625 0  0.515625 0.0625 0  0.53125 0.0625 0  0.546875 0.0625 0  0.5625 0.0625 0  0.578125 0.0625 0  0.59375 0.0625 0  0.609375 0.0625 0  0.625 0.0625 0  0.640625 0.0625 0  0.65625 0.0625 0  0.671875 0.0625 0  0.6875 0.0625 0  0.703125 0.0625 0  0.71875 0.0625 0  0.734375 0.0625 0  0.75 0.0625 0  0.765625 0.0625 0  0.78125 0.0625 0  0.796875 0.0625 0  0.8125 0.0625 0  0.828125 0.0625 0  0.84375 0.0625 0  0.859375 0.0625 0  0.875 0.0625 0  0.890625 0.0625 0  0.90625 0.0625 0  0.921875 0.0625 0  0.9375 0.0625 0  0.953125 0.0625 0  0.96875 0.0625 0  0.984375 0.0625 0  1 0.0625 0  0 0.078125 0  0.015625 0.078125 0  0.03125 0.078125 0  0.046875 0.078125 0  0.0625 0.078125 0  0.078125 0.078125 0  0.09375 0.078125 0  0.109375 0.078125 0  0.125 0.078125 0  0.140625 0.078125 0  0.15625 0.078125 0  0.171875 0.078125 0  0.1875 0.078125 0  0.203125 0.078125 0  0.21875 0.078125 0  0.234375 0.078125 0  0.25 0.078125 0  0.265625 0.078125 0  0.28125 0.078125 0  0.296875 0.078125 0  0.3125 0.078125 0  0.328125 0.078125 0  0.34375 0.078125 0  0.359375 0.078125 0  0.375 0.078125 0  0.390625 0.078125 0  0.40625 0.078125 0  0.421875 0.078125 0  0.4375 0.078125 0  0.453125 0.078125 0  0.46875 0.078125 0  0.484375 0.078125 0  0.5 0.078125 0  0.515625 0.078125 0  0.53125 0.078125 0  0.546875 0.078125 0  0.5625 0.078125 0  0.578125 0.078125 0  0.59375 0.078125 0  0.609375 0.078125 0  0.625 0.078125 0  0.640625 0.078125 0  0.65625 0.078125 0  0.671875 0.078125 0  0.6875 0.078125 0  0.703125 0.078125 0  0.71875 0.078125 0  0.734375 0.078125 0  0.75 0.078125 0  0.765625 0.078125 0  0.78125 0.078125 0  0.796875 0.078125 0  0.8125 0.078125 0  0.828125 0.078125 0  0.84375 0.078125 0  0.859375 0.078125 0  0.875 0.078125 0  0.890625 0.078125 0  0.90625 0.078125 0  0.921875 0.078125 0  0.9375 0.078125 0  0.953125 0.078125 0  0.96875 0.078125 0  0.984375 0.078125 0  1 0.078125 0  0 0.09375 0  0.015625 0.09375 0  0.03125 0.09375 0  0.046875 0.09375 0  0.0625 0.09375 0  0.078125 0.09375 0  0.09375 0.09375 0  0.109375 0.09375 0  0.125 0.09375 0  0.140625 0.09375 0  0.15625 0.09375 0  0.171875 0.09375 0  0.1875 0.09375 0  0.203125 0.09375 0  0.21875 0.09375 0  0.234375 0.09375 0  0.25 0.09375 0  0.265625 0.09375 0  0.28125 0.09375 0  0.296875 0.09375 0  0.3125 0.09375 0  0.328125 0.09375 0  0.34375 0.09375 0  0.359375 0.09375 0  0.375 0.09375 0  0.390625 0.09375 0  0.40625 0.09375 0  0.421875 0.09375 0  0.4375 0.09375 0  0.453125 0.09375 0  0.46875 0.09375 0  0.484375 0.09375 0  0.5 0.09375 0  0.515625 0.09375 0  0.53125 0.09375 0  0.546875 0.09375 0  0.5625 0.09375 0  0.578125 0.09375 0  0.59375 0.09375 0  0.609375 0.09375 0  0.625 0.09375 0  0.640625 0.09375 0  0.65625 0.09375 0  0.671875 0.09375 0  0.6875 0.09375 0  0.703125 0.09375 0  0.71875 0.09375 0  0.734375 0.09375 0  0.75 0.09375 0  0.765625 0.09375 0  0.78125 0.09375 0  0.796875 0.09375 0  0.8125 0.09375 0  0.828125 0.09375 0  0.84375 0.09375 0  0.859375 0.09375 0  0.875 0.09375 0  0.890625 0.09375 0  0.90625 0.09375 0  0.921875 0.09375 0  0.9375 0.09375 0  0.953125 0.09375 0  0.96875 0.09375 0  0.984375 0.09375 0  1 0.09375 0  0 0.109375 0  0.015625 0.109375 0  0.03125 0.109375 0  0.046875 0.109375 0  0.0625 0.109375 0  0.078125 0.109375 0  0.09375 0.109375 0  0.109375 0.109375 0  0.125 0.109375 0  0.140625 0.109375 0  0.15625 0.109375 0  0.171875 0.109375 0  0.1875 0.109375 0  0.203125 0.109375 0  0.21875 0.109375 0  0.234375 0.109375 0  0.25 0.109375 0  0.265625 0.109375 0  0.28125 0.109375 0  0.296875 0.109375 0  0.3125 0.109375 0  0.328125 0.109375 0  0.34375 0.109375 0  0.359375 0.109375 0  0.375 0.109375 0  0.390625 0.109375 0  0.40625 0.109375 0  0.421875 0.109375 0  0.4375 0.109375 0  0.453125 0.109375 0  0.46875 0.109375 0  0.484375 0.109375 0  0.5 0.109375 0  0.515625 0.109375 0  0.53125 0.109375 0  0.546875 0.109375 0  0.5625 0.109375 0  0.578125 0.109375 0  0.59375 0.109375 0  0.609375 0.109375 0  0.625 0.109375 0  0.640625 0.109375 0  0.65625 0.109375 0  0.671875 0.109375 0  0.6875 0.109375 0  0.703125 0.109375 0  0.71875 0.109375 0  0.734375 0.109375 0  0.75 0.109375 0  0.765625 0.109375 0  0.78125 0.109375 0  0.796875 0.109375 0  0.8125 0.109375 0  0.828125 0.109375 0  0.84375 0.109375 0  0.859375 0.109375 0  0.875 0.109375 0  0.890625 0.109375 0  0.90625 0.109375 0  0.921875 0.109375 0  0.9375 0.109375 0  0.953125 0.109375 0  0.96875 0.109375 0  0.984375 0.109375 0  1 0.109375 0  0 0.125 0  0.015625 0.125 0  0.03125 0.125 0  0.046875 0.125 0  0.0625 0.125 0  0.078125 0.125 0  0.09375 0.125 0  0.109375 0.125 0  0.125 0.12
[...]
<PointData  Scalars="f_6"> 
<DataArray  type="Float64"  Name="f_6"  format="ascii">-6.2000000000000000e+01  -6.0546875000000000e+01  -5.9093750000000000e+01  -5.7640625000000000e+01  -5.6187500000000000e+01  -5.4734375000000000e+01  -5.3281250000000000e+01  -5.1828125000000000e+01  -5.0375000000000000e+01  -4.8921875000000000e+01  -4.7468750000000000e+01  -4.6015625000000000e+01  -4.4562500000000000e+01  -4.3109374999449436e+01  -4.1656250000000000e+01  -4.0203125000000000e+01  -3.8750000000000000e+01  -3.7296875000000000e+01  -3.5843750000000000e+01  -3.4390625000000000e+01  -3.2937500000000000e+01  -3.1484375000000000e+01  -3.0031250000000000e+01  -2.8578125000000000e+01  -2.7125000000000000e+01  -2.5671875000000000e+01  -2.4218750000000000e+01  -2.2765625000000000e+01  -2.1312500000000000e+01  -1.9859375000000000e+01  -1.8406250000000000e+01  -1.6953125000000000e+01  -1.5500000000000000e+01  -1.4046875000000000e+01  -1.2593750000000000e+01  -1.1140625000000000e+01  -9.6875000000000000e+00  -8.2343750000000320e+00  -6.7812500000000000e+00  -5.3281250000000000e+00  -3.8750000000000000e+00  -2.4218750000000000e+00  -9.6875000000000000e-01  4.8437500000000000e-01  1.9375000000000000e+00  3.3906249994471125e+00  4.8437500000000000e+00  6.2968750000000000e+00  7.7500000000000000e+00  9.2031250000000000e+00  1.0656250000000000e+01  1.2109375000000000e+01  1.3562500000000000e+01  1.5015624993480742e+01  1.6468750000000000e+01  1.7921875000000000e+01  1.9375000000000000e+01  2.0828125000000000e+01  2.2281250000000000e+01  2.3734375000000000e+01  2.5187500000000000e+01  2.6640625000000000e+01  2.8093750000000000e+01  2.9546875000000000e+01  3.1000000000000000e+01  -6.2000000000000000e+01  -3.1352093090615077e+06  2.2804560329005744e+07  -4.3926561924174512e+06  9.5126776834135549e+05  -1.8940282717355478e+06  4.9028905998466723e+05  -1.9860451164405397e+06  7.7907421573516829e+06  -8.8926450932593942e+06  1.3418747835369186e+07  -2.6870096996409573e+07  5.6325068858974585e+06  -3.2777134263915331e+06  6.9479601573185734e+06  -2.1630293798100196e+07  2.6993711700811941e+07  -3.0658934451162171e+07  5.0309921434378520e+07  -1.0140765220142786e+08  3.1108243536834486e+07  -5.5803306142383683e+06  3.6301825821468449e+05  1.5315448857927870e+06  -9.9269378062425950e+05  1.7621984125633689e+06  -5.8914119713103268e+06  -6.1308968934517668e+05  4.8159084993610671e+06  -1.9656665761632062e+07  1.0394532981294766e+07  -2.8752465258450601e+06  1.6774465361321936e+06  -2.6148901952865133e+06  5.9394679540772652e+06  -5.6209151527812227e+05  -5.2279698621383643e+04  -8.1795586351794220e+04  4.2806426723006711e+05  -5.0737505920854543e+05  1.4076877134400007e+05  -1.9523819855061569e+05  -6.6725971579215620e+04  6.3344427194807344e+04  -1.4077704578561334e+11  -1.2582408007486513e+11  -9.0445580632017197e+10  -9.1290653922337921e+10  -7.0954749439805023e+10  -3.9064577465895226e+10  -3.7037701035736023e+10  -4.0194957975279327e+10  -3.8356172773053238e+10  -5.9434060376826630e+10  2.9923031283439430e+10  1.2086274450259491e+11  -3.1113855634199837e+10  -1.5130893597312126e+10  -1.7063345362727596e+10  -1.3868609210913097e+10  -1.4066295152763542e+10  5.3459671604014969e+09  -8.7415162993286514e+09  -2.2683499151359692e+09  3.1000000000000000e+01  -6.2000000000000000e+01  3.8877748798597424e+05  -2.4411655647810368e+10  -4.3752105125335564e+10  -4.5229487068576180e+10  -7.2578988199573700e+10  -3.8083895727826233e+10  -3.4772625756691818e+10  -1.2895848348163306e+11  -1.7599933272871478e+11  -5.8372329304790382e+10  -5.4915355535021889e+10  -5.9672976711385727e+10  -1.0402880672247292e+11  -1.4598469526166272e+11  -1.8790836833479759e+10  -6.1272257975850952e+10  8.1627942449734460e+11  -6.3962888258471887e+11  -6.4117808340774609e+11  -5.7283189689863757e+11  -8.7920225357431042e+11  -1.8441407357946462e+12  -3.3564906600731982e+12  -6.3300322065076309e+12  -1.2014689948606742e+13  -4.1620383628628875e+13  4.1680869850554214e+12  -1.5913324888317932e+11  -4.8176586799915820e+11  6.9564817459917725e+10  2.0747421428347119e+11  2.6937883197917168e+12  -1.1352376679731428e+12  1.3900626574678418e+11  4.1796720930865869e+11  5.6233194931473621e+11  -3.2888077732265747e+11  8.4507462374781464e+10  -1.0558664133578762e+12  -1.0614340040813640e+11  4.3259865455137471e+12  4.0679717698215045e+11  -8.6097613829771362e+11  -7.1065859337657397e+11  6.0266254937980298e+11  -3.7881249675649799e+11  3.3807754481424237e+11  3.9149568940585718e+11  -2.5298842105019434e+11  -2.2003579188850272e+11  7.3951019223386261e+10  -4.1519435248981216e+10  1.8957649257907093e+10  -8.5391391695856750e+10  -1.6820550669164392e+11  1.3346139319112902e+09  -9.5968301602976089e+10  -5.8198035774541245e+10  -6.0689523845355164e+10  5.4502686307125626e+10  -1.4679035362790643e+11  5.5717095629736656e+10  -3.1233362557712984e+09  3.1000000000000000e+01  -6.2000000000000000e+01  -6.7693733628665039e+05  4.4159350067840738e+09  6.3143061647100296e+10  3.1808532477565050e+09  -4.7658681443540291e+10  1.3800386497819360e+11  -1.2750173817517645e+11  2.2455294853110187e+11  -1.1068102547806655e+12  -5.9818679755468246e+10  9.1612928205585327e+10  -7.4602208508038635e+10  -7.2492207530807800e+10  5.8620540569278296e+11  -8.5641464692015442e+11  1.5218516664172534e+12  9.0185462896363754e+09  -2.3130444391022693e+11  7.7702558410092334e+11  -9.3143863035700977e+11  4.2177443825298877e+11  -1.9111908237482974e+12  4.0431099844399932e+12  -1.3570438572699531e+13  1.6729141634798230e+13  2.8658964056538324e+13  -7.8094911976284424e+12  -4.9383832957736172e+12  1.2335582687240578e+13  3.6940678285469912e+12  -2.1679379454799556e+12  -1.0811890074832345e+12  -2.3824776355393159e+12  -1.2079408646752393e+12  -2.4937732702319404e+12  -2.8385449212025137e+12  5.9631503960343616e+11  -1.3138126144258684e+12  -2.5659497349635742e+12  5.4792317776430414e+11  -4.6264549046613129e+10  -3.4148448791988765e+12  -1.4163097873156768e+12  1.3463110543689502e+11  -1.1383622118730151e+12  -2.0407826446898050e+11  -2.8917614899800256e+11  -3.2169659743658344e+11  -2.4033254564695673e+11  6.6846626292234428e+10  -2.5150295225663953e+11  -2.6252767162273111e+11  -9.0306179661816254e+10  -1.0302835701966559e+11  -1.7088945372488718e+11  -1.4769171108849411e+11  -1.2907377758551361e+11  2.2921080568249811e+11  -1.3044759895647182e+11  -6.8881112402599829e+11  -2.4209758138305267e+10  -8.8639767934720650e+09  -5.8709785758260452e+10  3.1000000000000000e+01  -6.2000000000000000e+01  6.3228612572393497e+05  -2.5464262111381962e+10  -2.1809433573990289e+11  -7.7479903749927307e+10  8.5587961756906113e+10  -2.5247099593776648e+11  -4.7619207034409460e+11  -7.5976431760233557e+11  6.2669640521659033e+11  7.7108080567836853e+11  -6.8616323391306982e+11  -2.6974482949067217e+12  2.5467383884074219e+12  -1.2806550863466355e+12  2.6225284857127964e+10  -9.8024135496798596e+11  -1.7561400445859585e+12  2.1553441429813774e+12  -2.9698657688130479e+12  2.1741042768354187e+12  -1.2769043295377730e+13  1.0436401484563258e+13  -4.5425904891431656e+13  3.0498724177324395e+13  -5.8399475309807852e+12  -2.2898470889550375e+13  -2.9159268470606566e+13  -2.6790872543879594e+13  2.1013769667416441e+13  -4.0091662642552047e+13  -4.5382937995990586e+12  -1.1395283294131870e+11  1.2791747827045792e+11  -7.1993385620264429e+11  8.4791331823216836e+12  4.2834796450398271e+12  -1.4689498652235436e+13  -2.9719448057522778e+12  3.4685619324811853e+11  -2.9898388949082581e+11  -1.1366719038764189e+12  -4.8920072533592998e+12  9.2287508669938379e+11  -1.3877876765401169e+12  -1.1580404671215513e+12  1.8320611257952155e+11  -4.3188564446109235e+11  2.5481118087855415e+10  -4.4079579278388855e+10  1.2540765897940738e+11  -2.5487491809035443e+11  3.8881031277667383e+11  -1.2530988130341911e+11  1.5057901644787665e+11  8.4663108574248718e+10  5.8931346737162183e+11  -1.4386148448070050e+11  -1.4831571902960638e+11  -8.3715782425976471e+10  5.6193702914425195e+11  -8.3705457195884827e+10  4.7358534702075546e+10  1.2801089017679697e+11  3.1000000000000000e+01  -6.2000000000000000e+01  -6.3742238841158955e+05  -6.1900759071503105e+10  1.9223653060118164e+10  -4.3979540297749741e+10  -2.7077907560490342e+12  2.4510309619018564e+12  -1.6374251136531504e+12  1.6255755077994028e+12  1.0433503532108008e+12  -2.2452952913281353e+12  -9.0023297927291455e+11  3.5356769279523628e+12  -1.2857362263116084e+12  -2.8581306443774697e+12  5.6071602830681133e+12  -6.3028372210329971e+12  4.5350509431821455e+12  -9.4716103285804531e+12  6.2809922998943477e+12  -5.9028618965395820e+12  1.5843722008468570e+13  -1.5031650090628266e+13  3.7012020968993250e+13  1.8722094999816750e+13  7.0013849621787246e+12  3.0838063879462500e+13  -3.6779407835933096e+12  3.6046476808465719e+13  -3.2589097611536516e+13  5.3313568341892949e+12  -1.0845664900409045e+12  5.3913868979752422e+12  -1.1792012422185159e+12  -6.0314908555479260e+11  -1.6281981201494084e+12  2.6267111607253057e+12  -6.3855072628278796e+11  8.1196762927376855e+12  8.7811802503152881e+11  -2.7279694951745764e+11  -3.9966418806046553e+12  1.8335963658206338e+12  -8.0785464341686743e+11  -6.1415181216525928e+11  1.0756823204749109e+12  -9.2206237199162097e+11  -2.7238592739076236e+11  -2.6040724696554672e+11  -2.1289446798171356e+11  -1.9036903522699759e+11  -2.9657736636648669e+11  -3.6534800026687305e+11  -3.3669463909875085e+11  -2.2768807507686212e+11  -1.9985415939854547e+11  -2.3949188423342010e+11  -2.6010205341224005e+11  1.3869683066367511e+11  -1.6504123907950198e+11  2.9942698187956383e+10  -4.2477752932128345e+11  -2.8234202323186758e+12  3.0145114136572321e+11  3.1000000000000000e+01  -6.2000000000000000e+01  6.0868377309739334e+05  -6.0080429967673058e+10  8.1909321326145239e+09  1.0333897114426398e+11  6.1507156009470850e+11  -2.6981693528547620e+11  6.8941112137686119e+09  -3.3695940783799353e+11  -3.1150295310884326e+12  -3.9186785568122626e+11  3.4147427953898838e+12  -5.4254315030144141e+12  -1.4591097162200957e+12  6.1638175171402051e+12  -6.9828277675917959e+12  4.5183350615146621e+12  -4.4553174981275186e+12  3.0321556156276201e+12  -3.3554236821093828e+12  4.5250959399821211e+12  -1.8982754879161789e+13  1.6342395996646891e+13  -2.2705611863606453e+13  -2.3928931330134043e+12  -1.3839506356108625e+13  -1.5551954033079465e+13  -3.4367568372919367e+13  -1.0421305257941383e+13  1.4977588077894393e+13  -3.8577115750509536e+12  -7.4845884702619995e+11  5.3601674165657434e+11  -4.2514979115845703e+12  4.2689969050733643e+12  1.4221420758966816e+12  5.9019522868418994e+12  2.1972935320607837e+12  3.2700089529275635e+12  -2.7977061263455903e+12  5.6730019763095645e+12  2.4514401650150957e+13  -4.2804264217062012e+12  -1.5769330138382111e+11  1.1694498521823346e+11  -6.2162009015818359e+11  -5.0695668323899072e+11  2.7955898066364075e+11  3.1841594928259747e+10  -9.1986227583901642e+10  2.7496507942657944e+10  -8.8444737853565979e+10  1.4807767679986420e+11  4.4254801458147217e+11  4.9486383651529102e+11  2.9052059281420386e+11  3.7096902626645889e+10  -1.2513725958767966e+11  -2.3792317666889032e+11  1.9241624840136566e+10  -7.9009230389076385e+10  -3.6732507378888672e+10  1.8934181264438947e+11  -2.6944327467822241e+11  3.1000000000000000e+01  -6.2000000000000000e+01  -6.8033206785456720e+05  -7.4322159539037598e+10  -3.4857349315581528e+10  -8.3479740544077014e+11  1.4145364346030806e+12  3.6908513098155975e+11  -2.6994383301102021e+12  3.5194193834742295e+12  -1.3966746336691139e+10  3.5412353836529580e+12  -4.8190572203617861e+12  -1.4811230306988643e+12  6.9255771957979375e+12  -9.9468525735948867e+12  7.0625600198954648e+12  -8.3882653566357539e+12  7.2872133087148125e+12  -9.3981258848144297e+12  8.3571233994250957e+12  -1.6562902839029383e+13  2.4284770390043516e+13  -1.3096072094847379e+13  2.0749242264993156e+13  1.5389920154146676e+13  1.0624427014034128e+12  1.5857562523941402e+13  -1.3108718104730250e+13  3.4003278103942582e+13  -7.2422455790847891e+12  -1.8782021645679150e+12  1.3915096590549673e+12  -4.5548546508357207e+12  -3.0382179036976401e+12  1.3746748952374824e+12  -3.4830751139480156e+12  -2.6890707152933721e+12  -2.7133803753581976e+11  -1.3217361193082847e+12  -2.4075154752000117e+12  -2.9923885957514663e+12  -2.5914141460679795e+12  -2.1302588095354957e+13  3.9899808142558384e+12  8.2887380933936877e+11  -3.1686395420543610e+11  5.2799926367361072e+11  -9.1146323552206384e+11  5.1526955448160039e+12  1.1858060522400645e+13  1.1689039457875686e+13  1.0254400423418955e+13  7.6123734199152363e+12  4.7700306222637334e+12  2.4377377466930718e+12  8.8192498947588879e+11  1.4351970494889021e+10  -3.9732534292856522e+10  2.8806808186060950e+11  -1.3603010663408548e+11  -6.8451412968545921e+10  9.0195477305922341e+08  5.2135232690951050e+10  1.2976992357871666e+10  3.1000000000000000e+01  -6.2000000000000000e+01  1.2761086707080747e+06  -4.4165891665104660e+10  -8.8254971740344330e+10  1.1912487790762183e+12  -1.3927759075075754e+12  -2.3549665343036323e+12  3.4019306436197095e+12  -6.0982927867929980e+12  -1.7583291082616675e+11  -2.2063596434862544e+12  -1.7857957605334698e+11  8.4379461223569404e+12  -8.8483106803694453e+12  -2.1143770500971814e+11  5.0282791539273574e+12  -3.1361966042477407e+12  -7.2018082536727656e+12  5.3710416981582725e+12  -6.8362843717224785e+12  1.7321389767867742e+13  -1.3296110646056012e+13  1.3514723000380355e+13  -8.8284546549628086e+12  -2.3954887057143617e+13  -1.6860453377387094e+13  -4.5071583868042203e+13  2.4546905282285242e+13  -4.3746054173716499e+12  -3.8806646946867500e+12  -4.7373190310439141e+12  -3.9776654633617139e+12  -3.1520986593457129e+12  8.2713889946524268e+11  -4.3773325372638589e+12  -2.9346312089934517e+12  2.3694728016128986e+11  -2.2532396218398799e+12  -1.6141974761600549e+12  -1.7717855848698503e+12  1.7794910535956069e+12  -4.1619140015485459e+12  2.8664819377289719e+13  -1.8252117440412114e+12  -6.0797706838919238e+11  -6.1233527950514075e+11  -1.0893908721409766e+12  -1.1786219294397588e+12  -2.4079125883281979e+11  -1.1892775853939996e+13  -1.6092125583704428e+13  -1.4466121232090344e+13  -1.2699958661751062e+13  -1.0110438843030203e+13  -7.2670444441556953e+12  -4.8202910823078896e+12  -3.0530104252794941e+12  -1.9706961953266929e+12  -7.1752572807589319e+11  -4.8407385680634082e+11  -2.9560806657348450e+11  -1.0159160455438330e+11  -6.5637797002864830e+10  5.7835254381275406e+10  3.1000000000000000e+01  -6.2000000000000000e+01  3.1634991730088647e+06  5.8458194250846481e+10  -1.1603955704159924e+11  -1.8198149985388208e+12  -1.2744720237093579e+12  3.8869365844227764e+12  -2.6591638888505996e+12  5.3351709762204365e+12  -6.7168234821666064e+11  -8.7905370997810840e+11  7.1236994039282837e+11  -7.2658114215348594e+12  2.0211472415537653e+11  6.3208710800289917e+11  -6.7575811322756372e+11  -5.1119671627500195e+12  8.1465882652621094e+12  -3.5829664942495288e+12  1.4261544316093570e+13  -2.0408166118781859e+13  1.1860020665687219e+13  -1.0543849731451793e+13  -8.3988096770436143e+12  6.6504508203836865e+11  2.8576489467667712e+11  5.0264239822442125e+13  -9.5859875763094751e+11  -1.1304273194471865e+12  -3.9640406783872705e+12  -5.0031617418279902e+12  2.4245154914656738e+12  -7.3834050005863510e+10  -2.9365613553108984e+12  -3.3524630749237412e+12  4.0204483620707939e+12  -1.2911935936538086e+13  2.1088146375468969e+13  -2.1939065149222339e+12  2.9633654550282783e+12  -1.9416611810636011e+12  -8.9139804192703418e+12  -8.6976680118882412e+12  -2.3504314746258047e+12  1.1397053444267710e+12  -1.2768016480561550e+12  -8.7339612283108948e+11  1.8846259802071283e+11  -1.1097635125819121e+12  -1.0788120971799916e+12  1.1214043886475336e+13  9.6830348495381387e+12  1.0728601995976641e+13  9.9391348152023828e+12  7.6014323711233535e+12  4.9983721512417441e+12  2.9190884878693477e+12  1.5415011810171382e+12  7.7089216292449329e+11  2.6800010772993845e+11  2.2238448265228317e+10  -8.9383138372461624e+10  -2.1404380266361520e+11  -5.0951535754129883e+10  3.1000000000000000e+01  -6.2000000000000000e+01  -7.7823436523916638e+06  -1.4659299728384066e+09  -1.1712743664558502e+11  1.2775603885750625e+12  2.8741218786781436e+12  -1.2530276655288650e+12  4.8661143607962773e+12  -3.0917934148946230e+12  -1.6983353043007332e+12  9.9073078926594751e+11  -2.0116267001839250e+12  1.0519353602799280e+12  1.3633479870668003e+12  6.2794333007738135e+11  -3.5005390009350879e+12  5.6877217678211309e+12  -4.6034832734037549e+12  3.3862740399305371e+12  -8.7026115113401641e+12  1.3960956542179770e+13  3.3296438457631500e+11  -1.1041494683016111e+13  8.4905308520152466e+11  1.0175608510602495e+12  5.5278321204896875e+12  5.3187641251194958e+11  6.5665030352814297e+12  -1.7643874504342188e+13  6.8579278393080908e+12  -4.2798901352031123e+12  -8.7877754609858369e+12  -2.2992374565300195e+11  -2.9334317561134658e+12  2.0730566496930981e+12  -9.2823243173464453e+12  -3.5685437744893193e+12  -2.1665407979043545e+12  -3.1016270404060016e+13  -1.7191731824136807e+12  -2.4732567841746572e+12  4.5010959808790723e+12  -3.1838418109861787e+12  4.2380298984713516e+12  -1.8069386677122993e+12  -1.2483673848508477e+12  1.9771618078399466e+11  -1.0474342167509539e+12  -1.2023143918069902e+12  -4.8946129079657397e+11  -1.5041114893828320e+13  -1.2636324259796609e+13  -1.2951999493838859e+13  -1.2453258654428371e+13  -9.9826591148215273e+12  -6.7697949141704277e+12  -4.0969716906425947e+12  -2.3510828606623262e+12  -1.2776284424408799e+12  -6.8348155120405151e+11  -3.8171841957190784e+11  -2.3210587829287790e+11  5.4907015194601761e+10  -5.1838828798219475e+10  3.1000000000000000e+01  -6.2000000000000000e+01  2.8717195268421965e+06  -1.6089974576475961e+11  3.9907222596750267e+10  -4.2227106846185706e+11  -1.5573695090774136e+12  -6.4951405112992401e+10  -2.9242007607105913e+12  3.7177419227833710e+10  4.6282584311419958e+11  -8.2759343255852344e+11  2.0694839323029438e+10  -1.4763098518536719e+12  -1.0071457803860159e+11  -5.2380284308010254e+12  2.1765134681337334e+12  -6.0964293813261875e+12  2.7978339044867231e+12  -1.5825818995619702e+12  -5.3127946972168887e+12  4.2729941352072607e+11  -1.2947923586299551e+13  1.1985168392335652e+12  -8.5373126465923496e+12  -3.4989580170358447e+12  -7.1825944836636816e+11  2.2862366276112769e+12  -5.5023098933931172e+12  1.4856787211861709e+12  -4.1686189296745869e+12  -3.8483812928952568e+12  1.4153227277450342e+12  1.6573979880250886e+12  -1.4291140415770938e+12  -3.9928495094772432e+12  -3.3737980503435840e+12  -6.5093352173372148e+12  1.7750378779060781e+12  -1.1329904609729949e+12  2.1310698604539922e+13  4.9524143230062797e+13  -1.7803634920913188e+13  -3.5103314242077549e+12  -3.7643651941876357e+12  3.0479245647495645e+12  -4.2249094262885498e+11  -1.0563138407291685e+12  -1.0782217001445077e+12  -5.2304959842845337e+10  9.2334700301936934e+12  9.5068039542643945e+12  6.8202596292510879e+12  8.6479543398336338e+12  9.2702496532523008e+12  8.4961073870369648e+12  5.6646792946033223e+12  2.9139976314360049e+12  1.1654751985213276e+12  2.9674341222845459e+11  -6.7293895021632034e+10  -1.6385754704911105e+11  1.1319579535406963e+10  -1.1585272150595291e+11  -5.3342059926647705e+10  3.1000000000000000e+01  -6.2000000000000000e+01  -3.4033493181678453e+06  -9.2166583218470551e+10  -1.0809372001281653e+11  -3.3413194053127234e+11  -1.4116760851115017e+10  -2.1956506489826067e+12  9.1092986556781274e+11  8.0627735172774170e+11  -2.0903704404705464e+12  7.4078743474952136e+11  -1.8632273418526550e+11  -3.6097191122376025e+12  -1.1454050956069688e+12  4.2104181532702803e+12  -2.2137657007498242e+12  5.6632455447056797e+12  -3.7367568940726084e+12  -4.2368427567564258e+12  5.4226068899342969e+12  -1.9363094938860635e+12  1.2531764354753901e+12  7.0955134795254805e+12  -6.4491359564866436e+12  4.1784204542133506e+12  -9.7850005282440918e+11  -2.2195159610710773e+11  -4.8836595626398516e+12  1.6551054661856841e+12  -4.275