<?xml version="1.0"?>
<VTKFile type="UnstructuredGrid"  version="0.1"  >
<UnstructuredGrid>
<Piece  NumberOfPoints="441" NumberOfCells="800">
<Points>
<DataArray  type="Float64"  NumberOfComponents="3"  format="ascii">0 0 0  0.05 0 0  0.1 0 0  0.15 0 0  0.2 0 0  0.25 0 0  0.3 0 0  0.35 0 0  0.4 0 0  0.45 0 0  0.5 0 0  0.55 0 0  0.6 0 0  0.65 0 0  0.7 0 0  0.75 0 0  0.8 0 0  0.85 0 0  0.9 0 0  0.95 0 0  1 0 0  0 0.05 0  0.05 0.05 0  0.1 0.05 0  0.15 0.05 0  0.2 0.05 0  0.25 0.05 0  0.3 0.05 0  0.35 0.05 0  0.4 0.05 0  0.45 0.05 0  0.5 0.05 0  0.55 0.05 0  0.6 0.05 0  0.65 0.05 0  0.7 0.05 0  0.75 0.05 0  0.8 0.05 0  0.85 0.05 0  0.9 0.05 0  0.95 0.05 0  1 0.05 0  0 0.1 0  0.05 0.1 0  0.1 0.1 0  0.15 0.1 0  0.2 0.1 0  0.25 0.1 0  0.3 0.1 0  0.35 0.1 0  0.4 0.1 0  0.45 0.1 0  0.5 0.1 0  0.55 0.1 0  0.6 0.1 0  0.65 0.1 0  0.7 0.1 0  0.75 0.1 0  0.8 0.1 0  0.85 0.1 0  0.9 0.1 0  0.95 0.1 0  1 0.1 0  0 0.15 0  0.05 0.15 0  0.1 0.15 0  0.15 0.15 0  0.2 0.15 0  0.25 0.15 0  0.3 0.15 0  0.35 0.15 0  0.4 0.15 0  0.45 0.15 0  0.5 0.15 0  0.55 0.15 0  0.6 0.15 0  0.65 0.15 0  0.7 0.15 0  0.75 0.15 0  0.8 0.15 0  0.85 0.15 0  0.9 0.15 0  0.95 0.15 0  1 0.15 0  0 0.2 0  0.05 0.2 0  0.1 0.2 0  0.15 0.2 0  0.2 0.2 0  0.25 0.2 0  0.3 0.2 0  0.35 0.2 0  0.4 0.2 0  0.45 0.2 0  0.5 0.2 0  0.55 0.2 0  0.6 0.2 0  0.65 0.2 0  0.7 0.2 0  0.75 0.2 0  0.8 0.2 0  0.85 0.2 0  0.9 0.2 0  0.95 0.2 0  1 0.2 0  0 0.25 0  0.05 0.25 0  0.1 0.25 0  0.15 0.25 0  0.2 0.25 0  0.25 0.25 0  0.3 0.25 0  0.35 0.25 0  0.4 0.25 0  0.45 0.25 0  0.5 0.25 0  0.55 0.25 0  0.6 0.25 0  0.65 0.25 0  0.7 0.25 0  0.75 0.25 0  0.8 0.25 0  0.85 0.25 0  0.9 0.25 0  0.95 0.25 0  1 0.25 0  0 0.3 0  0.05 0.3 0  0.1 0.3 0  0.15 0.3 0  0.2 0.3 0  0.25 0.3 0  0.3 0.3 0  0.35 0.3 0  0.4 0.3 0  0.45 0.3 0  0.5 0.3 0  0.55 0.3 0  0.6 0.3 0  0.65 0.3 0  0.7 0.3 0  0.75 0.3 0  0.8 0.3 0  0.85 0.3 0  0.9 0.3 0  0.95 0.3 0  1 0.3 0  0 0.35 0  0.05 0.35 0  0.1 0.35 0  0.15 0.35 0  0.2 0.35 0  0.25 0.35 0  0.3 0.35 0  0.35 0.35 0  0.4 0.35 0  0.45 0.35 0  0.5 0.35 0  0.55 0.35 0  0.6 0.35 0  0.65 0.35 0  0.7 0.35 0  0.75 0.35 0  0.8 0.35 0  0.85 0.35 0  0.9 0.35 0  0.95 0.35 0  1 0.35 0  0 0.4 0  0.05 0.4 0  0.1 0.4 0  0.15 0.4 0  0.2 0.4 0  0.25 0.4 0  0.3 0.4 0  0.35 0.4 0  0.4 0.4 0  0.45 0.4 0  0.5 0.4 0  0.55 0.4 0  0.6 0.4 0  0.65 0.4 0  0.7 0.4 0  0.75 0.4 0  0.8 0.4 0  0.85 0.4 0  0.9 0.4 0  0.95 0.4 0  1 0.4 0  0 0.45 0  0.05 0.45 0  0.1 0.45 0  0.15 0.45 0  0.2 0.45 0  0.25 0.45 0  0.3 0.45 0  0.35 0.45 0  0.4 0.45 0  0.45 0.45 0  0.5 0.45 0  0.55 0.45 0  0.6 0.45 0  0.65 0.45 0  0.7 0.45 0  0.75 0.45 0  0.8 0.45 0  0.85 0.45 0  0.9 0.45 0  0.95 0.45 0  1 0.45 0  0 0.5 0  0.05 0.5 0  0.1 0.5 0  0.15 0.5 0  0.2 0.5 0  0.25 0.5 0  0.3 0.5 0  0.35 0.5 0  0.4 0.5 0  0.45 0.5 0  0.5 0.5 0  0.55 0.5 0  0.6 0.5 0  0.65 0.5 0  0.7 0.5 0  0.75 0.5 0  0.8 0.5 0  0.85 0.5 0  0.9 0.5 0  0.95 0.5 0  1 0.5 0  0 0.55 0  0.05 0.55 0  0.1 0.55 0  0.15 0.55 0  0.2 0.55 0  0.25 0.55 0  0.3 0.55 0  0.35 0.55 0  0.4 0.55 0  0.45 0.55 0  0.5 0.55 0  0.55 0.55 0  0.6 0.55 0  0.65 0.55 0  0.7 0.55 0  0.75 0.55 0  0.8 0.55 0  0.85 0.55 0  0.9 0.55 0  0.95 0.55 0  1 0.55 0  0 0.6 0  0.05 0.6 0  0.1 0.6 0  0.15 0.6 0  0.2 0.6 0  0.25 0.6 0  0.3 0.6 0  0.35 0.6 0  0.4 0.6 0  0.45 0.6 0  0.5 0.6 0  0.55 0.6 0  0.6 0.6 0  0.65 0.6 0  0.7 0.6 0  0.75 0.6 0  0.8 0.6 0  0.85 0.6 0  0.9 0.6 0  0.95 0.6 0  1 0.6 0  0 0.65 0  0.05 0.65 0  0.1 0.65 0  0.15 0.65 0  0.2 0.65 0  0.25 0.65 0  0.3 0.65 0  0.35 0.65 0  0.4 0.65 0  0.45 0.65 0  0.5 0.65 0  0.55 0.65 0  0.6 0.65 0  0.65 0.65 0  0.7 0.65 0  0.75 0.65 0  0.8 0.65 0  0.85 0.65 0  0.9 0.65 0  0.95 0.65 0  1 0.65 0  0 0.7 0  0.05 0.7 0  0.1 0.7 0  0.15 0.7 0  0.2 0.7 0  0.25 0.7 0  0.3 0.7 0  0.35 0.7 0  0.4 0.7 0  0.45 0.7 0  0.5 0.7 0  0.55 0.7 0  0.6 0.7 0  0.65 0.7 0  0.7 0.7 0  0.75 0.7 0  0.8 0.7 0  0.85 0.7 0  0.9 0.7 0  0.95 0.7 0  1 0.7 0  0 0.75 0  0.05 0.75 0  0.1 0.75 0  0.15 0.75 0  0.2 0.75 0  0.25 0.75 0  0.3 0.75 0  0.35 0.75 0  0.4 0.75 0  0.45 0.75 0  0.5 0.75 0  0.55 0.75 0  0.6 0.75 0  0.65 0.75 0  0.7 0.75 0  0.75 0.75 0  0.8 0.75 0  0.85 0.75 0  0.9 0.75 0  0.95 0.75 0  1 0.75 0  0 0.8 0  0.05 0.8 0  0.1 0.8 0  0.15 0.8 0  0.2 0.8 0  0.25 0.8 0  0.3 0.8 0  0.35 0.8 0  0.4 0.8 0  0.45 0.8 0  0.5 0.8 0  0.55 0.8 0  0.6 0.8 0  0.65 0.8 0  0.7 0.8 0  0.75 0.8 0  0.8 0.8 0  0.85 0.8 0  0.9 0.8 0  0.95 0.8 0  1 0.8 0  0 0.85 0  0.05 0.85 0  0.1 0.85 0  0.15 0.85 0  0.2 0.85 0  0.25 0.85 0  0.3 0.85 0  0.35 0.85 0  0.4 0.85 0  0.45 0.85 0  0.5 0.85 0  0.55 0.85 0  0.6 0.85 0  0.65 0.85 0  0.7 0.85 0  0.75 0.85 0  0.8 0.85 0  0.85 0.85 0  0.9 0.85 0  0.95 0.85 0  1 0.85 0  0 0.9 0  0.05 0.9 0  0.1 0.9 0  0.15 0.9 0  0.2 0.9 0  0.25 0.9 0  0.3 0.9 0  0.35 0.9 0  0.4 0.9 0  0.45 0.9 0  0.5 0.9 0  0.55 0.9 0  0.6 0.9 0  0.65 0.9 0  0.7 0.9 0  0.75 0.9 0  0.8 0.9 0  0.85 0.9 0  0.9 0.9 0  0.95 0.9 0  1 0.9 0  0 0.95 0  0.05 0.95 0  0.1 0.95 0  0.15 0.95 0  0.2 0.95 0  0.25 0.95 0  0.3 0.95 0  0.35 0.95 0  0.4 0.95 0  0.45 0.95 0  0.5 0.95 0  0.55 0.95 0  0.6 0.95 0  0.65 0.95 0  0.7 0.95 0  0.75 0.95 0  0.8 0.95 0  0.85 0.95 0  0.9 0.95 0  0.95 0.95 0  1 0.95 0  0 1 0  0.05 1 0  0.1 1 0  0.15 1 0  0.2 1 0  0.25 1 0  0.3 1 0  0.35 1 0  0.4 1 0  0.45 1 0  0.5 1 0  0.55 1 0  0.6 1 0  0.65 1 0  0.7 1 0  0.75 1 0  0.8 1 0  0.85 1 0  0.9 1 0  0.95 1 0  1 1 0  </DataArray>
</Points>
<Cells>
[...]
<PointData  Scalars="f_6"> 
<DataArray  type="Float64"  Name="f_6"  format="ascii">-2.0000000000000000e+00  -1.8499999999999999e+00  -1.7000000000000000e+00  -1.5500000000000000e+00  -1.4000000000000001e+00  -1.2500000000000000e+00  -1.0999999999999999e+00  -9.5000000000000018e-01  -7.9999999999999993e-01  -6.5000000000000013e-01  -5.0000000000000000e-01  -3.4999999999999987e-01  -2.0000000000000007e-01  -4.9999999999999933e-02  9.9999999999999867e-02  2.5000000000000000e-01  4.0000000000000013e-01  5.4999999999999993e-01  7.0000000000000007e-01  8.4999999999999987e-01  1.0000000000000000e+00  -2.0000000000000000e+00  -1.4449241692789774e+00  -1.2205657478499281e+00  -1.0777494307146511e+00  -9.6490772795451063e-01  -8.6434411205443706e-01  -7.6799646265593469e-01  -6.7142033373127785e-01  -5.7182817460713098e-01  -4.6740889953991316e-01  -3.5713975366073430e-01  -2.4067426267038947e-01  -1.1799703294614930e-01  1.1051243674641545e-02  1.4586379198881796e-01  2.8481797299160644e-01  4.2604844520851987e-01  5.6862093429636740e-01  7.1201655563961530e-01  8.5589560003067799e-01  1.0000000000000000e+00  -2.0000000000000000e+00  -1.2807539968025548e+00  -1.0397477746710031e+00  -8.9956462514164914e-01  -7.9463199344577962e-01  -7.0446588731400173e-01  -6.2007790702432319e-01  -5.3658480917051332e-01  -4.5093489155989863e-01  -3.6108007026776318e-01  -2.6564235852066370e-01  -1.6369195198790895e-01  -5.4392152616953258e-02  6.2861382312992473e-02  1.8743434006326359e-01  3.1735965476908795e-01  4.5075487354610538e-01  5.8641873633733410e-01  7.2354968823141508e-01  8.6156584448309703e-01  1.0000000000000000e+00  -2.0000000000000000e+00  -1.1904402805807457e+00  -9.4100063466347328e-01  -8.0117897138369376e-01  -6.9834418283224242e-01  -6.1116635149136189e-01  -5.3057372899281674e-01  -4.5172398468782332e-01  -3.7160916217639067e-01  -2.8816172823721947e-01  -1.9984894820861793e-01  -1.0539355714299833e-01  -3.5075735857017496e-03  1.0641599225897244e-01  2.2365253118215611e-01  3.4643143247537628e-01  4.7319265786947917e-01  6.0274944927544816e-01  7.3419761646561388e-01  8.6681808967029461e-01  1.0000000000000000e+00  -2.0000000000000000e+00  -1.1334922488698160e+00  -8.7816709885843725e-01  -7.3769935492079641e-01  -6.3512206930553183e-01  -5.4870961813805419e-01  -4.6941382567100448e-01  -3.9246682434039198e-01  -3.1491880958651586e-01  -2.3470686443757749e-01  -1.5021036516284683e-01  -5.9938931753548516e-02  3.7491365636216904e-02  1.4252373115778738e-01  2.5432835993101244e-01  3.7152088608078165e-01  4.9283487618098626e-01  6.1718878642936548e-01  7.4367323868529733e-01  8.7150889773246742e-01  1.0000000000000000e+00  -2.0000000000000000e+00  -1.0950595152644853e+00  -8.3531957053228545e-01  -6.9389210319949546e-01  -5.9092336503214027e-01  -5.0446425515113735e-01  -4.2549996868713313e-01  -3.4932013483774493e-01  -2.7301516509853596e-01  -1.9452331739973441e-01  -1.1216514712688713e-01  -2.4320119870063894e-02  7.0272456532050914e-02  1.7185920680494740e-01  2.7961629130332483e-01  3.9248887573575136e-01  5.0943717434431879e-01  6.2949758157573044e-01  7.5179765411374244e-01  8.7554426257427787e-01  1.0000000000000000e+00  -2.0000000000000000e+00  -1.0683107967424741e+00  -8.0526403292389903e-01  -6.6289514158573382e-01  -5.5935829301576367e-01  -4.7257186015889219e-01  -3.9355103418363424e-01  -3.1762559838877114e-01  -2.4191066270279321e-01  -1.6434116096061469e-01  -8.3194669088235515e-02  3.2016063219373015e-03  9.5925090137991262e-02  1.9502434822662659e-01  2.9978872274158841e-01  4.0938115121458024e-01  5.2292736388480721e-01  6.3956671141549415e-01  7.5847553361966502e-01  8.7887049845090059e-01  1.0000000000000000e+00  -2.0000000000000000e+00  -1.0496478610467135e+00  -7.8421468620988533e-01  -6.4108319354101895e-01  -5.3702139901174284e-01  -4.4987089860224688e-01  -3.7067254076108769e-01  -2.9478402704221585e-01  -2.1933532412615966e-01  -1.4225605563119464e-01  -6.1791082332298110e-02  2.3718559031655092e-02  1.1519144220508230e-01  2.1252437322197912e-01  3.1513310022182189e-01  4.2231964249617421e-01  5.3332441856483570e-01  6.4736636658177305e-01  7.6366727049852290e-01  8.8146219760965872e-01  1.0000000000000000e+00  -2.0000000000000000e+00  -1.0370301898501946e+00  -7.7001454794001689e-01  -6.2637857448799217e-01  -5.2194687784215110e-01  -4.3452102811773463e-01  -3.5516356664126808e-01  -2.7925194183305407e-01  -2.0392552836014843e-01  -1.2710947163052722e-01  -4.7026332503394115e-02  3.7944221107465835e-02  1.2859774642870384e-01  2.2474860223438539e-01  3.2589966242754581e-01  4.3143989998345866e-01  5.4068430129658807e-01  6.5290706584823954e-01  7.6736498418299481e-01  8.8331102148921115e-01  1.0000000000000000e+00  -2.0000000000000000e+00  -1.0292889295082581e+00  -7.6142123620751023e-01  -6.1757781870572026e-01  -5.1298946342745155e-01  -4.2544385282147318e-01  -3.4602152879490489e-01  -2.7011396616924233e-01  -1.9486712848574203e-01  -1.1820418694762956e-01  -3.8335644750999098e-02  4.6329939990661935e-02  1.3650672016788190e-01  2.3197262685931294e-01  3.3227704727051738e-01  4.3685599371352746e-01  5.4506582078981836e-01  6.5621261133160247e-01  7.6957457889600611e-01  8.8441690416419183e-01  1.0000000000000000e+00  -2.0000000000000000e+00  -1.0258178621310718e+00  -7.5778799564992416e-01  -6.1405178907225644e-01  -5.0954760921637587e-01  -4.2207054336260180e-01  -3.4271568249741347e-01  -2.6688399082266134e-01  -1.9172638287105132e-01  -1.1516713494274090e-01  -3.5414264493931862e-02  4.9123009299032468e-02  1.3912656739284890e-01  2.3435813776446712e-01  3.3437990608168322e-01  4.3864120681031532e-01  5.4651037681755488e-01  6.5730297979234598e-01  7.7030381590523556e-01  8.8478201627154929e-01  1.0000000000000000e+00  -2.0000000000000000e+00  -1.0264305914771856e+00  -7.5891829960189094e-01  -6.1561003231981715e-01  -5.1143856516340624e-01  -4.2422775161033272e-01  -3.4508427120739443e-01  -2.6941432613813415e-01  -1.9437224284317325e-01  -1.1788634935287165e-01  -3.8171268564382528e-02  4.6394195344944961e-02  1.3651840234001411e-01  2.3195345072402310e-01  3.3224323248143295e-01  4.3681855062849578e-01  5.4503149987773969e-01  6.5618511511498989e-01  7.6955568866104107e-01  8.8440734501676976e-01  1.0000000000000000e+00  -2.0000000000000000e+00  -1.0313044354423913e+00  -7.6501303602185455e-01  -6.2245421836760462e-01  -5.1885718038923723e-01  -4.3210107955874649e-01  -3.5330234813009359e-01  -2.7786782677941119e-01  -2.0295290607236699e-01  -1.2649221318521922e-01  -4.6715957372947398e-02  3.8045833812068761e-02  1.2859939589823982e-01  2.2469403031017798e-01  3.2582102249153028e-01  4.3135826334449523e-01  5.4061195694991804e-01  6.5285029212883328e-01  7.6732647860716896e-01  8.8329167513448847e-01  1.0000000000000000e+00  -2.0000000000000000e+00  -1.0409855510337411e+00  -7.7668630112194215e-01  -6.3519960849814538e-01  -5.3239992352345222e-01  -4.4625986177216220e-01  -3.6790619734480617e-01  -2.9274105277707785e-01  -2.1791677397608161e-01  -1.4137505670475475e-01  -6.1370537140978149e-02  2.3804740922228649e-02  1.1513931713069864e-01  2.1240225212691879e-01  3.1498856383001506e-01  4.2218152330803688e-01  5.3320777244860385e-01  6.4727761784325755e-01  7.6360825850431258e-01  8.8143287691401528e-01  1.0000000000000000e+00  -2.0000000000000000e+00  -1.0564652711352274e+00  -7.9506371074164350e-01  -6.5497967639521892e-01  -5.5316902532734546e-01  -4.6775725342489927e-01  -3.8988711955328359e-01  -3.1494984145358773e-01  -2.4008771281411212e-01  -1.6324760625459087e-01  -8.2716383821822573e-02  3.2009941941693550e-03  9.5750879575407580e-02  1.9478709723678328e-01  2.9954945739357497e-01  4.0917149360903343e-01  5.2275999169320297e-01  6.3944414829128193e-01  7.5839606065280818e-01  8.7883157401726109e-01  1.0000000000000000e+00  -2.0000000000000000e+00  -1.0793860832592399e+00  -8.2203070299116587e-01  -6.8370068404638140e-01  -5.8301931960826625e-01  -4.9836252199504399e-01  -4.2090513960363590e-01  -3.4602107928646919e-01  -2.7083134147651000e-01  -1.9328233935304279e-01  -1.1170053704466140e-01  -2.4475708598608575e-02  6.9876109739979195e-02  1.7144579985123165e-01  2.7925067489846833e-01  3.9219500204131880e-01  5.0921655242389208e-01  6.2934292297585881e-01  7.5170026179837701e-01  8.7549735850222110e-01  1.0000000000000000e+00  -2.0000000000000000e+00  -1.1125491940153369e+00  -8.6082836023764597e-01  -7.2463910941969767e-01  -6.2512585787171626e-01  -5.4108501318281821e-01  -4.6376180935498124e-01  -3.8850839310030166e-01  -3.1240738469492002e-01  -2.3339499359188010e-01  -1.4985193396947288e-01  -6.0312996440070418e-02  3.6760668313995770e-02  1.4186931752969548e-01  2.5381244030774802e-01  3.7114128723388140e-01  4.9256829298518745e-01  6.1701072938988422e-01  7.4356470506261996e-01  8.7145759819324708e-01  1.0000000000000000e+00  -2.0000000000000000e+00  -1.1612573124900192e+00  -9.1762246637604072e-01  -7.8398820354158805e-01  -6.8542413011162084e-01  -6.0147505481930796e-01  -5.2354585301310608e-01  -4.4697166849917880e-01  -3.6877266587324881e-01  -2.8686060875009617e-01  -1.9969815967494761e-01  -1.0605020545277906e-01  -4.6300725680582938e-03  1.0545836164580637e-01  2.2298848156894727e-01  3.4598941360127172e-01  4.7290460289309200e-01  6.0256699653587076e-01  7.3409023086897063e-01  8.6676832920814839e-01  1.0000000000000000e+00  -2.0000000000000000e+00  -1.2375923636623565e+00  -1.0065624301220129e+00  -8.7575465553176879e-01  -7.7706260602689459e-01  -6.9153275905320222e-01  -6.1095917806918454e-01  -5.3070645963044616e-01  -4.4771411720504445e-01  -3.5986881509613267e-01  -2.6579551581061728e-01  -1.6466671129247987e-01  -5.5818110095822278e-02  6.1605694263698607e-02  1.8669371072096333e-01  3.1692328270916581e-01  4.5049370845003772e-01  5.8626242299153664e-01  7.2346089266924329e-01  8.6152548777037674e-01  1.0000000000000000e+00  -2.0000000000000000e+00  -1.3808756332855867e+00  -1.1736215337857663e+00  -1.0441284740098626e+00  -9.4002278634092906e-01  -8.4616855748704167e-01  -7.5555632160462338e-01  -6.6388804682466063e-01  -5.6814892627503977e-01  -4.6635372905815303e-01  -3.5758139331455069e-01  -2.4179930725931298e-01  -1.1935509250232847e-01  9.8195285828144956e-03  1.4525738434204213e-01  2.8451629806439105e-01  4.2588452520635622e-01  5.6852809431099527e-01  7.1196542904608884e-01  8.5587272920411650e-01  1.0000000000000000e+00  -2.0000000000000000e+00  -1.8499999999999999e+00  -1.7000000000000000e+00  -1.5500000000000000e+00  -1.4000000000000001e+00  -1.2500000000000000e+00  -1.0999999999999999e+00  -9.5000000000000007e-01  -7.9999999999999993e-01  -6.5000000000000013e-01  -5.0000000000000000e-01  -3.4999999999999992e-01  -2.0000000000000007e-01  -4.9999999999999933e-02  9.9999999999999867e-02  2.5000000000000000e-01  4.0000000000000013e-01  5.4999999999999993e-01  7.0000000000000007e-01  8.4999999999999987e-01  1.0000000000000000e+00  </DataArray> 
</PointData> 
</Piece>
</UnstructuredGrid>
</VTKFile>