<?xml version="1.0"?>
<VTKFile type="UnstructuredGrid"  version="0.1"  >
<UnstructuredGrid>
<Piece  NumberOfPoints="4225" NumberOfCells="8192">
<Points>
<DataArray  type="Float64"  NumberOfComponents="3"  format="ascii">0 0 0  0.015625 0 0  0.03125 0 0  0.046875 0 0  0.0625 0 0  0.078125 0 0  0.09375 0 0  0.109375 0 0  0.125 0 0  0.140625 0 0  0.15625 0 0  0.171875 0 0  0.1875 0 0  0.203125 0 0  0.21875 0 0  0.234375 0 0  0.25 0 0  0.265625 0 0  0.28125 0 0  0.296875 0 0  0.3125 0 0  0.328125 0 0  0.34375 0 0  0.359375 0 0  0.375 0 0  0.390625 0 0  0.40625 0 0  0.421875 0 0  0.4375 0 0  0.453125 0 0  0.46875 0 0  0.484375 0 0  0.5 0 0  0.515625 0 0  0.53125 0 0  0.546875 0 0  0.5625 0 0  0.578125 0 0  0.59375 0 0  0.609375 0 0  0.625 0 0  0.640625 0 0  0.65625 0 0  0.671875 0 0  0.6875 0 0  0.703125 0 0  0.71875 0 0  0.734375 0 0  0.75 0 0  0.765625 0 0  0.78125 0 0  0.796875 0 0  0.8125 0 0  0.828125 0 0  0.84375 0 0  0.859375 0 0  0.875 0 0  0.890625 0 0  0.90625 0 0  0.921875 0 0  0.9375 0 0  0.953125 0 0  0.96875 0 0  0.984375 0 0  1 0 0  0 0.015625 0  0.015625 0.015625 0  0.03125 0.015625 0  0.046875 0.015625 0  0.0625 0.015625 0  0.078125 0.015625 0  0.09375 0.015625 0  0.109375 0.015625 0  0.125 0.015625 0  0.140625 0.015625 0  0.15625 0.015625 0  0.171875 0.015625 0  0.1875 0.015625 0  0.203125 0.015625 0  0.21875 0.015625 0  0.234375 0.015625 0  0.25 0.015625 0  0.265625 0.015625 0  0.28125 0.015625 0  0.296875 0.015625 0  0.3125 0.015625 0  0.328125 0.015625 0  0.34375 0.015625 0  0.359375 0.015625 0  0.375 0.015625 0  0.390625 0.015625 0  0.40625 0.015625 0  0.421875 0.015625 0  0.4375 0.015625 0  0.453125 0.015625 0  0.46875 0.015625 0  0.484375 0.015625 0  0.5 0.015625 0  0.515625 0.015625 0  0.53125 0.015625 0  0.546875 0.015625 0  0.5625 0.015625 0  0.578125 0.015625 0  0.59375 0.015625 0  0.609375 0.015625 0  0.625 0.015625 0  0.640625 0.015625 0  0.65625 0.015625 0  0.671875 0.015625 0  0.6875 0.015625 0  0.703125 0.015625 0  0.71875 0.015625 0  0.734375 0.015625 0  0.75 0.015625 0  0.765625 0.015625 0  0.78125 0.015625 0  0.796875 0.015625 0  0.8125 0.015625 0  0.828125 0.015625 0  0.84375 0.015625 0  0.859375 0.015625 0  0.875 0.015625 0  0.890625 0.015625 0  0.90625 0.015625 0  0.921875 0.015625 0  0.9375 0.015625 0  0.953125 0.015625 0  0.96875 0.015625 0  0.984375 0.015625 0  1 0.015625 0  0 0.03125 0  0.015625 0.03125 0  0.03125 0.03125 0  0.046875 0.03125 0  0.0625 0.03125 0  0.078125 0.03125 0  0.09375 0.03125 0  0.109375 0.03125 0  0.125 0.03125 0  0.140625 0.03125 0  0.15625 0.03125 0  0.171875 0.03125 0  0.1875 0.03125 0  0.203125 0.03125 0  0.21875 0.03125 0  0.234375 0.03125 0  0.25 0.03125 0  0.265625 0.03125 0  0.28125 0.03125 0  0.296875 0.03125 0  0.3125 0.03125 0  0.328125 0.03125 0  0.34375 0.03125 0  0.359375 0.03125 0  0.375 0.03125 0  0.390625 0.03125 0  0.40625 0.03125 0  0.421875 0.03125 0  0.4375 0.03125 0  0.453125 0.03125 0  0.46875 0.03125 0  0.484375 0.03125 0  0.5 0.03125 0  0.515625 0.03125 0  0.53125 0.03125 0  0.546875 0.03125 0  0.5625 0.03125 0  0.578125 0.03125 0  0.59375 0.03125 0  0.609375 0.03125 0  0.625 0.03125 0  0.640625 0.03125 0  0.65625 0.03125 0  0.671875 0.03125 0  0.6875 0.03125 0  0.703125 0.03125 0  0.71875 0.03125 0  0.734375 0.03125 0  0.75 0.03125 0  0.765625 0.03125 0  0.78125 0.03125 0  0.796875 0.03125 0  0.8125 0.03125 0  0.828125 0.03125 0  0.84375 0.03125 0  0.859375 0.03125 0  0.875 0.03125 0  0.890625 0.03125 0  0.90625 0.03125 0  0.921875 0.03125 0  0.9375 0.03125 0  0.953125 0.03125 0  0.96875 0.03125 0  0.984375 0.03125 0  1 0.03125 0  0 0.046875 0  0.015625 0.046875 0  0.03125 0.046875 0  0.046875 0.046875 0  0.0625 0.046875 0  0.078125 0.046875 0  0.09375 0.046875 0  0.109375 0.046875 0  0.125 0.046875 0  0.140625 0.046875 0  0.15625 0.046875 0  0.171875 0.046875 0  0.1875 0.046875 0  0.203125 0.046875 0  0.21875 0.046875 0  0.234375 0.046875 0  0.25 0.046875 0  0.265625 0.046875 0  0.28125 0.046875 0  0.296875 0.046875 0  0.3125 0.046875 0  0.328125 0.046875 0  0.34375 0.046875 0  0.359375 0.046875 0  0.375 0.046875 0  0.390625 0.046875 0  0.40625 0.046875 0  0.421875 0.046875 0  0.4375 0.046875 0  0.453125 0.046875 0  0.46875 0.046875 0  0.484375 0.046875 0  0.5 0.046875 0  0.515625 0.046875 0  0.53125 0.046875 0  0.546875 0.046875 0  0.5625 0.046875 0  0.578125 0.046875 0  0.59375 0.046875 0  0.609375 0.046875 0  0.625 0.046875 0  0.640625 0.046875 0  0.65625 0.046875 0  0.671875 0.046875 0  0.6875 0.046875 0  0.703125 0.046875 0  0.71875 0.046875 0  0.734375 0.046875 0  0.75 0.046875 0  0.765625 0.046875 0  0.78125 0.046875 0  0.796875 0.046875 0  0.8125 0.046875 0  0.828125 0.046875 0  0.84375 0.046875 0  0.859375 0.046875 0  0.875 0.046875 0  0.890625 0.046875 0  0.90625 0.046875 0  0.921875 0.046875 0  0.9375 0.046875 0  0.953125 0.046875 0  0.96875 0.046875 0  0.984375 0.046875 0  1 0.046875 0  0 0.0625 0  0.015625 0.0625 0  0.03125 0.0625 0  0.046875 0.0625 0  0.0625 0.0625 0  0.078125 0.0625 0  0.09375 0.0625 0  0.109375 0.0625 0  0.125 0.0625 0  0.140625 0.0625 0  0.15625 0.0625 0  0.171875 0.0625 0  0.1875 0.0625 0  0.203125 0.0625 0  0.21875 0.0625 0  0.234375 0.0625 0  0.25 0.0625 0  0.265625 0.0625 0  0.28125 0.0625 0  0.296875 0.0625 0  0.3125 0.0625 0  0.328125 0.0625 0  0.34375 0.0625 0  0.359375 0.0625 0  0.375 0.0625 0  0.390625 0.0625 0  0.40625 0.0625 0  0.421875 0.0625 0  0.4375 0.0625 0  0.453125 0.0625 0  0.46875 0.0625 0  0.484375 0.0625 0  0.5 0.0625 0  0.515625 0.0625 0  0.53125 0.0625 0  0.546875 0.0625 0  0.5625 0.0625 0  0.578125 0.0625 0  0.59375 0.0625 0  0.609375 0.0625 0  0.625 0.0625 0  0.640625 0.0625 0  0.65625 0.0625 0  0.671875 0.0625 0  0.6875 0.0625 0  0.703125 0.0625 0  0.71875 0.0625 0  0.734375 0.0625 0  0.75 0.0625 0  0.765625 0.0625 0  0.78125 0.0625 0  0.796875 0.0625 0  0.8125 0.0625 0  0.828125 0.0625 0  0.84375 0.0625 0  0.859375 0.0625 0  0.875 0.0625 0  0.890625 0.0625 0  0.90625 0.0625 0  0.921875 0.0625 0  0.9375 0.0625 0  0.953125 0.0625 0  0.96875 0.0625 0  0.984375 0.0625 0  1 0.0625 0  0 0.078125 0  0.015625 0.078125 0  0.03125 0.078125 0  0.046875 0.078125 0  0.0625 0.078125 0  0.078125 0.078125 0  0.09375 0.078125 0  0.109375 0.078125 0  0.125 0.078125 0  0.140625 0.078125 0  0.15625 0.078125 0  0.171875 0.078125 0  0.1875 0.078125 0  0.203125 0.078125 0  0.21875 0.078125 0  0.234375 0.078125 0  0.25 0.078125 0  0.265625 0.078125 0  0.28125 0.078125 0  0.296875 0.078125 0  0.3125 0.078125 0  0.328125 0.078125 0  0.34375 0.078125 0  0.359375 0.078125 0  0.375 0.078125 0  0.390625 0.078125 0  0.40625 0.078125 0  0.421875 0.078125 0  0.4375 0.078125 0  0.453125 0.078125 0  0.46875 0.078125 0  0.484375 0.078125 0  0.5 0.078125 0  0.515625 0.078125 0  0.53125 0.078125 0  0.546875 0.078125 0  0.5625 0.078125 0  0.578125 0.078125 0  0.59375 0.078125 0  0.609375 0.078125 0  0.625 0.078125 0  0.640625 0.078125 0  0.65625 0.078125 0  0.671875 0.078125 0  0.6875 0.078125 0  0.703125 0.078125 0  0.71875 0.078125 0  0.734375 0.078125 0  0.75 0.078125 0  0.765625 0.078125 0  0.78125 0.078125 0  0.796875 0.078125 0  0.8125 0.078125 0  0.828125 0.078125 0  0.84375 0.078125 0  0.859375 0.078125 0  0.875 0.078125 0  0.890625 0.078125 0  0.90625 0.078125 0  0.921875 0.078125 0  0.9375 0.078125 0  0.953125 0.078125 0  0.96875 0.078125 0  0.984375 0.078125 0  1 0.078125 0  0 0.09375 0  0.015625 0.09375 0  0.03125 0.09375 0  0.046875 0.09375 0  0.0625 0.09375 0  0.078125 0.09375 0  0.09375 0.09375 0  0.109375 0.09375 0  0.125 0.09375 0  0.140625 0.09375 0  0.15625 0.09375 0  0.171875 0.09375 0  0.1875 0.09375 0  0.203125 0.09375 0  0.21875 0.09375 0  0.234375 0.09375 0  0.25 0.09375 0  0.265625 0.09375 0  0.28125 0.09375 0  0.296875 0.09375 0  0.3125 0.09375 0  0.328125 0.09375 0  0.34375 0.09375 0  0.359375 0.09375 0  0.375 0.09375 0  0.390625 0.09375 0  0.40625 0.09375 0  0.421875 0.09375 0  0.4375 0.09375 0  0.453125 0.09375 0  0.46875 0.09375 0  0.484375 0.09375 0  0.5 0.09375 0  0.515625 0.09375 0  0.53125 0.09375 0  0.546875 0.09375 0  0.5625 0.09375 0  0.578125 0.09375 0  0.59375 0.09375 0  0.609375 0.09375 0  0.625 0.09375 0  0.640625 0.09375 0  0.65625 0.09375 0  0.671875 0.09375 0  0.6875 0.09375 0  0.703125 0.09375 0  0.71875 0.09375 0  0.734375 0.09375 0  0.75 0.09375 0  0.765625 0.09375 0  0.78125 0.09375 0  0.796875 0.09375 0  0.8125 0.09375 0  0.828125 0.09375 0  0.84375 0.09375 0  0.859375 0.09375 0  0.875 0.09375 0  0.890625 0.09375 0  0.90625 0.09375 0  0.921875 0.09375 0  0.9375 0.09375 0  0.953125 0.09375 0  0.96875 0.09375 0  0.984375 0.09375 0  1 0.09375 0  0 0.109375 0  0.015625 0.109375 0  0.03125 0.109375 0  0.046875 0.109375 0  0.0625 0.109375 0  0.078125 0.109375 0  0.09375 0.109375 0  0.109375 0.109375 0  0.125 0.109375 0  0.140625 0.109375 0  0.15625 0.109375 0  0.171875 0.109375 0  0.1875 0.109375 0  0.203125 0.109375 0  0.21875 0.109375 0  0.234375 0.109375 0  0.25 0.109375 0  0.265625 0.109375 0  0.28125 0.109375 0  0.296875 0.109375 0  0.3125 0.109375 0  0.328125 0.109375 0  0.34375 0.109375 0  0.359375 0.109375 0  0.375 0.109375 0  0.390625 0.109375 0  0.40625 0.109375 0  0.421875 0.109375 0  0.4375 0.109375 0  0.453125 0.109375 0  0.46875 0.109375 0  0.484375 0.109375 0  0.5 0.109375 0  0.515625 0.109375 0  0.53125 0.109375 0  0.546875 0.109375 0  0.5625 0.109375 0  0.578125 0.109375 0  0.59375 0.109375 0  0.609375 0.109375 0  0.625 0.109375 0  0.640625 0.109375 0  0.65625 0.109375 0  0.671875 0.109375 0  0.6875 0.109375 0  0.703125 0.109375 0  0.71875 0.109375 0  0.734375 0.109375 0  0.75 0.109375 0  0.765625 0.109375 0  0.78125 0.109375 0  0.796875 0.109375 0  0.8125 0.109375 0  0.828125 0.109375 0  0.84375 0.109375 0  0.859375 0.109375 0  0.875 0.109375 0  0.890625 0.109375 0  0.90625 0.109375 0  0.921875 0.109375 0  0.9375 0.109375 0  0.953125 0.109375 0  0.96875 0.109375 0  0.984375 0.109375 0  1 0.109375 0  0 0.125 0  0.015625 0.125 0  0.03125 0.125 0  0.046875 0.125 0  0.0625 0.125 0  0.078125 0.125 0  0.09375 0.125 0  0.109375 0.125 0  0.125 0.12
[...]
<PointData  Scalars="f_6"> 
<DataArray  type="Float64"  Name="f_6"  format="ascii">-2.0000000000000000e+00  -1.9531250000000000e+00  -1.9062500000000000e+00  -1.8593750000000000e+00  -1.8125000000000000e+00  -1.7656250000000000e+00  -1.7187500000000000e+00  -1.6718750000000000e+00  -1.6250000000000000e+00  -1.5781250000000000e+00  -1.5312500000000000e+00  -1.4843750000000000e+00  -1.4375000000000000e+00  -1.3906250000000000e+00  -1.3437500000000000e+00  -1.2968750000000000e+00  -1.2500000000000000e+00  -1.2031250000000000e+00  -1.1562500000000000e+00  -1.1093750000000000e+00  -1.0625000000000000e+00  -1.0156250000000000e+00  -9.6874999999999989e-01  -9.2187500000000000e-01  -8.7500000000000000e-01  -8.2812500000000000e-01  -7.8125000000000000e-01  -7.3437500000000000e-01  -6.8750000000000000e-01  -6.4062500000000000e-01  -5.9375000000000000e-01  -5.4687500000000000e-01  -5.0000000000000000e-01  -4.5312500000000000e-01  -4.0625000000000000e-01  -3.5937500000000000e-01  -3.1250000000000000e-01  -2.6562500000000000e-01  -2.1875000000000003e-01  -1.7187500000000000e-01  -1.2500000000000000e-01  -7.8125000000000000e-02  -3.1250000000000000e-02  1.5625000000000000e-02  6.2500000000000000e-02  1.0937500000000000e-01  1.5625000000000000e-01  2.0312500000000000e-01  2.5000000000000000e-01  2.9687500000000000e-01  3.4375000000000000e-01  3.9062500000000000e-01  4.3750000000000000e-01  4.8437500000000000e-01  5.3125000000000000e-01  5.7812500000000000e-01  6.2500000000000000e-01  6.7187500000000000e-01  7.1875000000000000e-01  7.6562500000000000e-01  8.1250000000000000e-01  8.5937500000000000e-01  9.0625000000000000e-01  9.5312500000000000e-01  1.0000000000000000e+00  -2.0000000000000000e+00  -1.9131942028403082e+00  -1.8330666018954047e+00  -1.7581959091338943e+00  -1.6876645299520603e+00  -1.6208062463136108e+00  -1.5571044125113822e+00  -1.4961427297770662e+00  -1.4375776180097886e+00  -1.3811208666649886e+00  -1.3265278248076808e+00  -1.2735888891049891e+00  -1.2221231145999549e+00  -1.1719732763987649e+00  -1.1230019695382585e+00  -1.0750884780333720e+00  -1.0281262291267046e+00  -9.8202070196606261e-01  -9.3668769495574933e-01  -8.9205188022820592e-01  -8.4804559128937218e-01  -8.0460780343858518e-01  -7.6168327757375587e-01  -7.1922184736347927e-01  -6.7717783831037159e-01  -6.3550961682280460e-01  -5.9417928289076383e-01  -5.5315255012906750e-01  -5.1239890911981212e-01  -4.7189222767477335e-01  -4.3161191621357581e-01  -3.9154445406589977e-01  -3.5168410664069555e-01  -3.1203029655530085e-01  -2.7258138913508440e-01  -2.3334170601114232e-01  -1.9437021516298877e-01  -1.5577373911592160e-01  -1.1748992092293369e-01  -7.9275778060738586e-02  -4.4709095923253860e-02  -1.2035224094815165e-02  2.1675943055649391e-02  5.7315367156197526e-02  9.6075065931603476e-02  1.3795904540536366e-01  1.8126304466893106e-01  2.2533335866710225e-01  2.6987593308109603e-01  3.1473821355521320e-01  3.5983137425466727e-01  4.0509890677504118e-01  4.5050235804062594e-01  4.9601415984743674e-01  5.4161370528080588e-01  5.8728504837717910e-01  6.3301547721681584e-01  6.7879458629819989e-01  7.2461364879183532e-01  7.7046517628508060e-01  8.1634259953894106e-01  8.6224002920475840e-01  9.0815207010209820e-01  9.5407367136220134e-01  1.0000000000000000e+00  -2.0000000000000000e+00  -1.8763863841847293e+00  -1.7675680011607977e+00  -1.6701537098283610e+00  -1.5818064169954895e+00  -1.5008365062605358e+00  -1.4259752046004854e+00  -1.3562417011279384e+00  -1.2908605812610754e+00  -1.2292077911942525e+00  -1.1707737241823428e+00  -1.1151371152231202e+00  -1.0619460562236063e+00  -1.0109038708371900e+00  -9.6175840435352722e-01  -9.1429377260831923e-01  -8.6832391822753974e-01  -8.2368751877236146e-01  -7.8024392184720526e-01  -7.3786987157157968e-01  -6.9645685388585765e-01  -6.5590893426986663e-01  -6.1614099644036469e-01  -5.7707731793828809e-01  -5.3865044030933806e-01  -5.0080031052603391e-01  -4.6347369402436667e-01  -4.2662390681395418e-01  -3.9021101466143904e-01  -3.5420281999024611e-01  -3.1857713746197713e-01  -2.8332573857160043e-01  -2.4845901655879221e-01  -2.1400579018428670e-01  -1.7999568916386666e-01  -1.4644274058772055e-01  -1.1349628884270875e-01  -8.1660849933965038e-02  -5.1201868254252082e-02  -2.3274470435342795e-02  2.8066105435339715e-03  2.9599775786569180e-02  5.8599250507991953e-02  9.0689323397280669e-02  1.2652585116485271e-01  1.6512307102092041e-01  2.0550977460325839e-01  2.4706945691838195e-01  2.8943216010206879e-01  3.3237054688508977e-01  3.7573837668841481e-01  4.1943689480487140e-01  4.6339636554002589e-01  5.0756557606831554e-01  5.5190561289860762e-01  5.9638601101109423e-01  6.4098227419188458e-01  6.8567421918414828e-01  7.3044483258406090e-01  7.7527945680954558e-01  8.2016519266592547e-01  8.6509044717799477e-01  9.1004457984143261e-01  9.5501761534670682e-01  1.0000000000000000e+00  -2.0000000000000000e+00  -1.8421106164240533e+00  -1.7084257003515311e+00  -1.5926866995418232e+00  -1.4907006546647830e+00  -1.3995363549832394e+00  -1.3170701012833486e+00  -1.2417170408037248e+00  -1.1722651007455780e+00  -1.1077681344607402e+00  -1.0474746927051806e+00  -9.9077906476365951e-01  -9.3718672532223235e-01  -8.8628938534312318e-01  -8.3774661754226165e-01  -7.9127208868795473e-01  -7.4662308705244751e-01  -7.0359245049637553e-01  -6.6200227286673474e-01  -6.2169894851868568e-01  -5.8254923994685981e-01  -5.4443714234071661e-01  -5.0726138432708123e-01  -4.7093345390030761e-01  -4.3537607607720852e-01  -4.0052209542190204e-01  -3.6631373760552843e-01  -3.3270226347346771e-01  -2.9964814759396269e-01  -2.6712220885349358e-01  -2.3510868942338417e-01  -2.0361212595025655e-01  -1.7267051397819005e-01  -1.4237314773677881e-01  -1.1284189467400083e-01  -8.4081976619234930e-02  -5.6113612026279576e-02  -3.1078273902758871e-02  -8.1651359530455405e-03  1.4094121336314864e-02  3.6583023677637279e-02  6.1253909882693948e-02  8.9295631032778156e-02  1.2031682476008049e-01  1.5421594430960625e-01  1.9049761291020700e-01  2.2858352580480018e-01  2.6800253430109838e-01  3.0841270352370731e-01  3.4957343719466205e-01  3.9131469080903103e-01  4.3351393021600382e-01  4.7608063324629069e-01  5.1894616598719256e-01  5.6205715923421484e-01  6.0537110857670562e-01  6.4885338935547998e-01  6.9247518366244798e-01  7.3621200555071453e-01  7.8004262570311567e-01  8.2394826713722069e-01  8.6791198699986283e-01  9.1191818673893110e-01  9.5595221018319343e-01  1.0000000000000000e+00  -2.0000000000000000e+00  -1.8100575426669503e+00  -1.6547017396865611e+00  -1.5239323687974684e+00  -1.4113656698647057e+00  -1.3127129963049367e+00  -1.2249721602204720e+00  -1.1459694680197945e+00  -1.0740864471304610e+00  -1.0080894215812577e+00  -9.4701913888800537e-01  -8.9011692453162605e-01  -8.3677386300002721e-01  -7.8649495681250126e-01  -7.3887330159095266e-01  -6.9357112566126500e-01  -6.5030563877946823e-01  -6.0883831744130490e-01  -5.6896669088174878e-01  -5.3051797810178658e-01  -4.9334411891247526e-01  -4.5731787603484569e-01  -4.2232978288915668e-01  -3.8828578634959260e-01  -3.5510549109883605e-01  -3.2272094974488441e-01  -2.9107595464742658e-01  -2.6012578714286239e-01  -2.2983744806172413e-01  -2.0019070884128831e-01  -1.7118115418822427e-01  -1.4282824041631176e-01  -1.1519652752547198e-01  -8.8461747914270014e-02  -6.3038486895184889e-02  -3.9062271758263926e-02  -1.7292812557621592e-02  2.6132525761964685e-03  2.2283045960635711e-02  4.2713508035493924e-02  6.4785777770069081e-02  8.9537209033791185e-02  1.1701253898034616e-01  1.4706640030065693e-01  1.7952348840328472e-01  2.1406791050550134e-01  2.5032418140463680e-01  2.8794445095750393e-01  3.2664268249699996e-01  3.6619580756082021e-01  4.0643301913704333e-01  4.4722350200382194e-01  4.8846607124194036e-01  5.3008129539994908e-01  5.7200574947435323e-01  6.1418787470603364e-01  6.5658499099088108e-01  6.9916112055944935e-01  7.4188538025323381e-01  7.8473077331498220e-01  8.2767326317997858e-01  8.7069104694530453e-01  9.1376396993123565e-01  9.5687303864713524e-01  1.0000000000000000e+00  -2.0000000000000000e+00  -1.7800307431953861e+00  -1.6056949038191313e+00  -1.4624951013751391e+00  -1.3416291170119374e+00  -1.2374082614979676e+00  -1.1459729348145649e+00  -1.0646005840519728e+00  -9.9130861488549915e-01  -9.2461457428592442e-01  -8.6338501190190042e-01  -8.0673673325066197e-01  -7.5397026056123595e-01  -7.0452378405297877e-01  -6.5794054591140483e-01  -6.1384526658393856e-01  -5.7192680371976301e-01  -5.3192519996412524e-01  -4.9362188247125066e-01  -4.5683216788206660e-01  -4.2139948513625430e-01  -3.8719090568960612e-01  -3.5409369926285594e-01  -3.2201273490590487e-01  -2.9086863316474904e-01  -2.6059664025341855e-01  -2.3114621224471496e-01  -2.0248124281021226e-01  -1.7458082323150162e-01  -1.4744066216353424e-01  -1.2107619731708343e-01  -9.5529894188234474e-02  -7.0888581068857939e-02  -4.7279423008098849e-02  -2.6358179402732839e-02  -7.4371295451532739e-03  1.0535521868153966e-02  2.8230176823846428e-02  4.6996678997667532e-02  6.7707707062513917e-02  9.0309370333353928e-02  1.1509660950205554e-01  1.4215091555415846e-01  1.7141274905891635e-01  2.0274369849737431e-01  2.3592635930387676e-01  2.7070083835074193e-01  3.0680840562728035e-01  3.4401776794596844e-01  3.8213409141457533e-01  4.2099807617450025e-01  4.6048098742030008e-01  5.0047885431769967e-01  5.4090719489631034e-01  5.8169666855721547e-01  6.2278964978219409e-01  6.6413757934256124e-01  7.0569892733123474e-01  7.4743762158778904e-01  7.8932182412360086e-01  8.3132296532240668e-01  8.7341496767014160e-01  9.1557360739357141e-01  9.5777597447411267e-01  1.0000000000000000e+00  -2.0000000000000000e+00  -1.7518861183648886e+00  -1.5608555801564441e+00  -1.4072995287247745e+00  -1.2798635563782326e+00  -1.1714664865199680e+00  -1.0774361525823246e+00  -9.9455039660960021e-01  -9.2050641733291849e-01  -8.5360953054557220e-01  -7.9258171013153667e-01  -7.3643903627789686e-01  -6.8441056519268861e-01  -6.3588304910640492e-01  -5.9036232098725749e-01  -5.4744573285669473e-01  -5.0680211430330713e-01  -4.6815696607335761e-01  -4.3128137582372844e-01  -3.9598363357609645e-01  -3.6210284409587556e-01  -3.2950404906176856e-01  -2.9807452751434088e-01  -2.6772107204080647e-01  -2.3836816602091346e-01  -2.0995711843752954e-01  -1.8244629687427918e-01  -1.5581252965262979e-01  -1.3005358907123032e-01  -1.0519199082348654e-01  -8.1282591311838182e-02  -5.8431509205441400e-02  -3.6858688178674333e-02  -1.7630269997244336e-02  -5.0363866622795273e-04  1.6015181589753780e-02  3.2796284695998539e-02  5.0455764948441340e-02  6.9765786143674138e-02  9.0811270883540268e-02  1.1364738699877716e-01  1.3838894308691860e-01  1.6508176467531577e-01  1.9368998188347561e-01  2.2411219722341960e-01  2.5619298986188938e-01  2.8974440706717380e-01  3.2457056525490757e-01  3.6048589224501831e-01  3.9732471397701258e-01  4.3494420672608236e-01  4.7322351718517836e-01  5.1206116371224775e-01  5.5137196131037725e-01  5.9108408007600410e-01  6.3113647652296589e-01  6.7147674926593570e-01  7.1205938783513956e-01  7.5284435464308652e-01  7.9379593626922507e-01  8.3488180631590525e-01  8.7607225101928343e-01  9.1733951749879583e-01  9.5865725185574380e-01  1.0000000000000000e+00  -2.0000000000000000e+00  -1.7255071698482172e+00  -1.5197377729928809e+00  -1.3574971082692557e+00  -1.2248201555978224e+00  -1.1132735427098377e+00  -1.0174287620456151e+00  -9.3361482856505384e-01  -8.5924993203257616e-01  -7.9245940209053933e-01  -7.3184560283853084e-01  -6.7634321684160292e-01  -6.2512486969138770e-01  -5.7753765687229597e-01  -5.3305931157684072e-01  -4.9126724096738822e-01  -4.5181622446476821e-01  -4.1442208735297598e-01  -3.7884959140893754e-01  -3.4490336714379977e-01  -3.1242108724964468e-01  -2.8126832906930621e-01  -2.5133474926076915e-01  -2.2253134369058961e-01  -1.9478874515837799e-01  -1.6805677370713726e-01  -1.4230576307304818e-01  -1.1753026827239091e-01  -9.3755584650622226e-02  -7.1048364101252634e-02  -4.9536725498353355e-02  -2.9532795248003483e-02  -1.1660813491867345e-02  4.4098654572069518e-03  1.9724134289438096e-02  3.5573692958589517e-02  5.2699212221557240e-02  7.1030812130246271e-02  9.0799429745047400e-02  1.1212420332919597e-01  1.3507996369129585e-01  1.5973001117152599e-01  1.8609721817671035e-01  2.1415321657625083e-01  2.4382211865093911e-01  2.7498899585308739e-01  3.0751323480115650e-01  3.4124355608015711e-01  3.7603052180218438e-01  4.1173466552237437e-01  4.4823051956763837e-01  4.8540771088208329e-01  5.2317032203573588e-01  5.6143540655694668e-01  6.0013121391345803e-01  6.3919542696773013e-01  6.7857355336307645e-01  7.1821752010030115e-01  7.5808447288019276e-01  7.9813575999430719e-01  8.3833607265270582e-01  8.7865271259229050e-01  9.1905495972658480e-01  9.5951351545006647e-01  1.0000000000000000e+00  -2.0000000000000000e+00  -1.7007938013500910e+00  -1.4819705171207738e+00  -1.3124049899007972e+00  -1.1755207159437335e+00  -1.0615926018447224e+00  -9.6449613373759091e-01  -8.8016009514347648e-01  -8.0576059120281851e-01  -7.3927057809438534e-01  -6.7919345266941944e-01  -6.2439802742915851e-01  -5.7401228298147233e-01  -5.2735269517733596e-01  -4.8387590151132542e-01  -4.4314485291960881e-01  -4.0480463020350316e-01  -3.6856487916776182e-01  -3.3418689216884301e-01  -3.0147403233836506e-01  -2.7026462311839827e-01  -2.4042670252502732e-01  -2.1185422735199763e-01  -1.8446446385663282e-01  -1.5819651787895944e-01  -1.3301142945002414e-01  -1.0889516255329786e-01  -8.5866639850736462e-02  -6.3993573964221395e-02  -4.3416582667319042e-02  -2.4539047550989814e-02  -7.6816119062331203e-03  7.6445709782559709e-03  2.2367781022283695e-02  3.7522345949920308e-02  5.3856243733608956e-02  7.1396059101394654e-02  9.0168841605939104e-02  1.1027691737707315e-01  1.3180614899690032e-01  1.5481825326568430e-01  1.7935391973117926e-01  2.0542388028374875e-01  2.3300354759387834e-01  2.6203406495099874e-01  2.9242764009836475e-01  3.2407598020420764e-01  3.5685990246237953e-01  3.9065797336118807e-01  4.2535290674266241e-01  4.6083549514001343e-01  4.9700648473978065e-01  5.3377700699166553e-01  5.7106812896821579e-01  6.0880994205315120e-01  6.4694046407142058e-01  6.8540451711833861e-01  7.2415266632279640e-01  7.6314025678307629e-01  8.0232655817510601e-01  8.4167401170832068e-01  8.8114756697058760e-01  9.2071409336518684e-01  9.6034185021793761e-01  1.0000000000000000e+00  -2.0000000000000000e+00  -1.6776568113323196e+00  -1.4472397463473894e+00  -1.2714647084536299e+00  -1.1311854454866517e+00  -1.0154570772400877e+00  -9.1751935032617693e-01  -8.3294561577232706e-01  -7.5870225066936714e-01  -6.9263316108832740e-01  -6.3315971637577706e-01  -5.7909729999424209e-01  -5.2953849801193198e-01  -4.8377613206287784e-01  -4.4125105542972315e-01  -4.0151586524150057e-01  -3.6420915547137955e-01  -3.2903694682897644e-01  -2.9575913743208682e-01  -2.6417956768221651e-01  -2.3413877137743236e-01  -2.0550879491398052e-01  -1.7818966219031634e-01  -1.5210718752254426e-01  -1.2721201556513084e-01  -1.0348046028404717e-01  -8.0920083044950963e-02  -5.9586736282058794e-02  -3.9614822021374396e-02  -2.1474559734440863e-02  -5.3402191078634823e-03  9.4167773317658486e-03  2.3716879742082090e-02  3.8430838472163685e-02  5.4141224754350493e-02  7.0932876924531360e-02  8.8859938844473296e-02  1.0797157781504235e-01  1.2833324916040581e-01  1.5000522201564798e-01  1.7303298064336178e-01  1.9744353420375796e-01  2.2324083563322702e-01  2.5040302856451507e-01  2.7888295346081254e-01  3.0861151938516540e-01  3.3950314345492999e-01  3.7146210020396547e-01  4.0438856243752608e-01  4.3818349294707387e-01  4.7275206950997234e-01  5.0800572594536042e-01  5.4386309222293006e-01  5.8025016027109999e-01  6.1709996125951017e-01  6.5435197014646362e-01  6.9195138471606088e-01  7.2984837128946944e-01  7.6799732975421009e-01  8.0635620421471976e-01  8.4488584903488351e-01  8.8354945021655240e-01  9.2231199654563745e-01  9.6113979205649747e-01  1.0000000000000000e+00  -2.0000000000000000e+00  -1.6560150071919353e+00  -1.4152761037477117e+00  -1.2342133837278058e+00  -1.0911832940539639e+00  -9.7409866834803926e-01  -8.7562140910365738e-01  -7.9100989765348118e-01  -7.1704881789193664e-01  -6.5147261397984046e-01  -5.9263450452484634e-01  -5.3930642513804750e-01  -4.9055285637059853e-01  -4.4564836804535540e-01  -4.0402209217076401e-01  -3.6521937341699756e-01  -3.2887472458880784e-01  -2.9469244305853548e-01  -2.6243257545648568e-01  -2.3190074574711830e-01  -2.0294090029981623e-01  -1.7543038943408890e-01  -1.4927704935056257e-01  -1.2441806416631591e-01  -1.0082038281319346e-01  -7.8483011211952433e-02  -5.7447166386999586e-02  -3.7828514971667435e-02  -2.0080449115308506e-02  -4.3931974671889973e-03  9.9385061640110683e-03  2.3889473942582649e-02  3.8260673485991901e-02  5.3497468369938461e-02  6.9678837670786628e-02  8.6874100365692666e-02  1.0513924153692485e-01  1.2452428164935117e-01  1.4507927943385970e-01  1.6684850926192415e-01  1.8986491308835682e-01  2.1414640080726377e-01  2.3969289948088615e-01  2.6648477757014249e-01  2.9448320094257113e-01  3.2363234052655426e-01  3.5386297402638123e-01  3.8509679246102568e-01  4.1725068323787717e-01  4.5024043309813455e-01  4.8398356400744152e-01  5.1840125730875863e-01  5.5341947568359473e-01  5.8896945863374361e-01  6.2498777256732596e-01  6.6141607053886287e-01  6.9820068030997240e-01  7.3529210436480996e-01  7.7264448672957464e-01  8.1021507989467989e-01  8.4796372999994096e-01  8.8585238831510082e-01  9.2384465054431320e-01  9.6190532146241436e-01  1.0000000000000000e+00  -2.0000000000000000e+00  -1.6357936097547219e+00  -1.3858463290185405e+00  -1.2002630650183217e+00  -1.0549969387521549e+00  -9.3689768287841968e-01  -8.3810370718691363e-01  -7.5359455197575054e-01  -6.7999736947766565e-01  -6.1495356931677680e-01  -5.5675960097705512e-01  -5.0415198610382128e-01  -4.5617287194822237e-01  -4.1208279490645888e-01  -3.7130230136637049e-01  -3.3337185691061560e-01  -2.9792372718189414e-01  -2.6466193973316454e-01  -2.3334787996590256e-01  -2.0378997708577165e-01  -1.7583654471967763e-01  -1.4937130702971446e-01  -1.2431155869452368e-01  -1.0060926540224840e-01  -7.8255367200961851e-02  -5.7286456438229889e-02  -3.7802109115048922e-02  -2.0165675617243788e-02  -4.6677720225752608e-03  9.3883169393310911e-03  2.3037004914522815e-02  3.7098500953629224e-02  5.1938871889364385e-02  6.7619523850811644e-02  8.4202557193164898e-02  1.0174544533052779e-01  1.2029864528818229e-01  1.3990702781157777e-01  1.6061107766375768e-01  1.8244462250983220e-01  2.0543176164087767e-01  2.2958425645605421e-01  2.5489958391291129e-01  2.8135998129259793e-01  3.0893273221277506e-01  3.3757166775209946e-01  3.6721961966301497e-01  3.9781141237587903e-01  4.2927694495482249e-01  4.6154399220014553e-01  4.9454049611290041e-01  5.2819626359863781e-01  5.6244409456894662e-01  5.9722042601295400e-01  6.3246559983718720e-01  6.6812385913168859e-01  7.0414316162015556e-01  7.4047487913022381e-01  7.7707343290459840e-01  8.1389589863448331e-01  8.5090160275509963e-01  8.8805172249959607e-01  9.2530889585410048e-01  9.6263684324884680e-01  1.0000000000000000e+00  -2.0000000000000000e+00  -1.6169233230842370e+00  -1.3587469210333583e+00  -1.1692855478662774e+00  -1.0221975408843416e+00  -9.0334791699960548e-01  -8.0440190406351331e-01  -7.2009225705075464e-01  -6.4690938035963452e-01  -5.8241543791058037e-01  -5.2485947096098051e-01  -4.7294908026641025e-01  -4.2570867479388874e-01  -3.8238807299592953e-01  -3.4240167698554058e-01  -3.0528691402481556e-01  -2.7067523338825578e-01  -2.3827155100366845e-01  -2.0783957833048861e-01  -1.7919144157840594e-01  -1.5218067506645491e-01  -1.2669827165134992e-01  -1.0267225543728721e-01  -8.0072641810172082e-02  -5.8925879457411685e-02  -3.9338832298431388e-02  -2.1584252666213024e-02  -6.0592774387682180e-03  7.8757743279872401e-03  2.1283395097044334e-02  3.5045322728723516e-02