<?xml version="1.0"?>
<VTKFile type="UnstructuredGrid"  version="0.1"  >
<UnstructuredGrid>
<Piece  NumberOfPoints="441" NumberOfCells="800">
<Points>
<DataArray  type="Float64"  NumberOfComponents="3"  format="ascii">0 0 0  0.05 0 0  0.1 0 0  0.15 0 0  0.2 0 0  0.25 0 0  0.3 0 0  0.35 0 0  0.4 0 0  0.45 0 0  0.5 0 0  0.55 0 0  0.6 0 0  0.65 0 0  0.7 0 0  0.75 0 0  0.8 0 0  0.85 0 0  0.9 0 0  0.95 0 0  1 0 0  0 0.05 0  0.05 0.05 0  0.1 0.05 0  0.15 0.05 0  0.2 0.05 0  0.25 0.05 0  0.3 0.05 0  0.35 0.05 0  0.4 0.05 0  0.45 0.05 0  0.5 0.05 0  0.55 0.05 0  0.6 0.05 0  0.65 0.05 0  0.7 0.05 0  0.75 0.05 0  0.8 0.05 0  0.85 0.05 0  0.9 0.05 0  0.95 0.05 0  1 0.05 0  0 0.1 0  0.05 0.1 0  0.1 0.1 0  0.15 0.1 0  0.2 0.1 0  0.25 0.1 0  0.3 0.1 0  0.35 0.1 0  0.4 0.1 0  0.45 0.1 0  0.5 0.1 0  0.55 0.1 0  0.6 0.1 0  0.65 0.1 0  0.7 0.1 0  0.75 0.1 0  0.8 0.1 0  0.85 0.1 0  0.9 0.1 0  0.95 0.1 0  1 0.1 0  0 0.15 0  0.05 0.15 0  0.1 0.15 0  0.15 0.15 0  0.2 0.15 0  0.25 0.15 0  0.3 0.15 0  0.35 0.15 0  0.4 0.15 0  0.45 0.15 0  0.5 0.15 0  0.55 0.15 0  0.6 0.15 0  0.65 0.15 0  0.7 0.15 0  0.75 0.15 0  0.8 0.15 0  0.85 0.15 0  0.9 0.15 0  0.95 0.15 0  1 0.15 0  0 0.2 0  0.05 0.2 0  0.1 0.2 0  0.15 0.2 0  0.2 0.2 0  0.25 0.2 0  0.3 0.2 0  0.35 0.2 0  0.4 0.2 0  0.45 0.2 0  0.5 0.2 0  0.55 0.2 0  0.6 0.2 0  0.65 0.2 0  0.7 0.2 0  0.75 0.2 0  0.8 0.2 0  0.85 0.2 0  0.9 0.2 0  0.95 0.2 0  1 0.2 0  0 0.25 0  0.05 0.25 0  0.1 0.25 0  0.15 0.25 0  0.2 0.25 0  0.25 0.25 0  0.3 0.25 0  0.35 0.25 0  0.4 0.25 0  0.45 0.25 0  0.5 0.25 0  0.55 0.25 0  0.6 0.25 0  0.65 0.25 0  0.7 0.25 0  0.75 0.25 0  0.8 0.25 0  0.85 0.25 0  0.9 0.25 0  0.95 0.25 0  1 0.25 0  0 0.3 0  0.05 0.3 0  0.1 0.3 0  0.15 0.3 0  0.2 0.3 0  0.25 0.3 0  0.3 0.3 0  0.35 0.3 0  0.4 0.3 0  0.45 0.3 0  0.5 0.3 0  0.55 0.3 0  0.6 0.3 0  0.65 0.3 0  0.7 0.3 0  0.75 0.3 0  0.8 0.3 0  0.85 0.3 0  0.9 0.3 0  0.95 0.3 0  1 0.3 0  0 0.35 0  0.05 0.35 0  0.1 0.35 0  0.15 0.35 0  0.2 0.35 0  0.25 0.35 0  0.3 0.35 0  0.35 0.35 0  0.4 0.35 0  0.45 0.35 0  0.5 0.35 0  0.55 0.35 0  0.6 0.35 0  0.65 0.35 0  0.7 0.35 0  0.75 0.35 0  0.8 0.35 0  0.85 0.35 0  0.9 0.35 0  0.95 0.35 0  1 0.35 0  0 0.4 0  0.05 0.4 0  0.1 0.4 0  0.15 0.4 0  0.2 0.4 0  0.25 0.4 0  0.3 0.4 0  0.35 0.4 0  0.4 0.4 0  0.45 0.4 0  0.5 0.4 0  0.55 0.4 0  0.6 0.4 0  0.65 0.4 0  0.7 0.4 0  0.75 0.4 0  0.8 0.4 0  0.85 0.4 0  0.9 0.4 0  0.95 0.4 0  1 0.4 0  0 0.45 0  0.05 0.45 0  0.1 0.45 0  0.15 0.45 0  0.2 0.45 0  0.25 0.45 0  0.3 0.45 0  0.35 0.45 0  0.4 0.45 0  0.45 0.45 0  0.5 0.45 0  0.55 0.45 0  0.6 0.45 0  0.65 0.45 0  0.7 0.45 0  0.75 0.45 0  0.8 0.45 0  0.85 0.45 0  0.9 0.45 0  0.95 0.45 0  1 0.45 0  0 0.5 0  0.05 0.5 0  0.1 0.5 0  0.15 0.5 0  0.2 0.5 0  0.25 0.5 0  0.3 0.5 0  0.35 0.5 0  0.4 0.5 0  0.45 0.5 0  0.5 0.5 0  0.55 0.5 0  0.6 0.5 0  0.65 0.5 0  0.7 0.5 0  0.75 0.5 0  0.8 0.5 0  0.85 0.5 0  0.9 0.5 0  0.95 0.5 0  1 0.5 0  0 0.55 0  0.05 0.55 0  0.1 0.55 0  0.15 0.55 0  0.2 0.55 0  0.25 0.55 0  0.3 0.55 0  0.35 0.55 0  0.4 0.55 0  0.45 0.55 0  0.5 0.55 0  0.55 0.55 0  0.6 0.55 0  0.65 0.55 0  0.7 0.55 0  0.75 0.55 0  0.8 0.55 0  0.85 0.55 0  0.9 0.55 0  0.95 0.55 0  1 0.55 0  0 0.6 0  0.05 0.6 0  0.1 0.6 0  0.15 0.6 0  0.2 0.6 0  0.25 0.6 0  0.3 0.6 0  0.35 0.6 0  0.4 0.6 0  0.45 0.6 0  0.5 0.6 0  0.55 0.6 0  0.6 0.6 0  0.65 0.6 0  0.7 0.6 0  0.75 0.6 0  0.8 0.6 0  0.85 0.6 0  0.9 0.6 0  0.95 0.6 0  1 0.6 0  0 0.65 0  0.05 0.65 0  0.1 0.65 0  0.15 0.65 0  0.2 0.65 0  0.25 0.65 0  0.3 0.65 0  0.35 0.65 0  0.4 0.65 0  0.45 0.65 0  0.5 0.65 0  0.55 0.65 0  0.6 0.65 0  0.65 0.65 0  0.7 0.65 0  0.75 0.65 0  0.8 0.65 0  0.85 0.65 0  0.9 0.65 0  0.95 0.65 0  1 0.65 0  0 0.7 0  0.05 0.7 0  0.1 0.7 0  0.15 0.7 0  0.2 0.7 0  0.25 0.7 0  0.3 0.7 0  0.35 0.7 0  0.4 0.7 0  0.45 0.7 0  0.5 0.7 0  0.55 0.7 0  0.6 0.7 0  0.65 0.7 0  0.7 0.7 0  0.75 0.7 0  0.8 0.7 0  0.85 0.7 0  0.9 0.7 0  0.95 0.7 0  1 0.7 0  0 0.75 0  0.05 0.75 0  0.1 0.75 0  0.15 0.75 0  0.2 0.75 0  0.25 0.75 0  0.3 0.75 0  0.35 0.75 0  0.4 0.75 0  0.45 0.75 0  0.5 0.75 0  0.55 0.75 0  0.6 0.75 0  0.65 0.75 0  0.7 0.75 0  0.75 0.75 0  0.8 0.75 0  0.85 0.75 0  0.9 0.75 0  0.95 0.75 0  1 0.75 0  0 0.8 0  0.05 0.8 0  0.1 0.8 0  0.15 0.8 0  0.2 0.8 0  0.25 0.8 0  0.3 0.8 0  0.35 0.8 0  0.4 0.8 0  0.45 0.8 0  0.5 0.8 0  0.55 0.8 0  0.6 0.8 0  0.65 0.8 0  0.7 0.8 0  0.75 0.8 0  0.8 0.8 0  0.85 0.8 0  0.9 0.8 0  0.95 0.8 0  1 0.8 0  0 0.85 0  0.05 0.85 0  0.1 0.85 0  0.15 0.85 0  0.2 0.85 0  0.25 0.85 0  0.3 0.85 0  0.35 0.85 0  0.4 0.85 0  0.45 0.85 0  0.5 0.85 0  0.55 0.85 0  0.6 0.85 0  0.65 0.85 0  0.7 0.85 0  0.75 0.85 0  0.8 0.85 0  0.85 0.85 0  0.9 0.85 0  0.95 0.85 0  1 0.85 0  0 0.9 0  0.05 0.9 0  0.1 0.9 0  0.15 0.9 0  0.2 0.9 0  0.25 0.9 0  0.3 0.9 0  0.35 0.9 0  0.4 0.9 0  0.45 0.9 0  0.5 0.9 0  0.55 0.9 0  0.6 0.9 0  0.65 0.9 0  0.7 0.9 0  0.75 0.9 0  0.8 0.9 0  0.85 0.9 0  0.9 0.9 0  0.95 0.9 0  1 0.9 0  0 0.95 0  0.05 0.95 0  0.1 0.95 0  0.15 0.95 0  0.2 0.95 0  0.25 0.95 0  0.3 0.95 0  0.35 0.95 0  0.4 0.95 0  0.45 0.95 0  0.5 0.95 0  0.55 0.95 0  0.6 0.95 0  0.65 0.95 0  0.7 0.95 0  0.75 0.95 0  0.8 0.95 0  0.85 0.95 0  0.9 0.95 0  0.95 0.95 0  1 0.95 0  0 1 0  0.05 1 0  0.1 1 0  0.15 1 0  0.2 1 0  0.25 1 0  0.3 1 0  0.35 1 0  0.4 1 0  0.45 1 0  0.5 1 0  0.55 1 0  0.6 1 0  0.65 1 0  0.7 1 0  0.75 1 0  0.8 1 0  0.85 1 0  0.9 1 0  0.95 1 0  1 1 0  </DataArray>
</Points>
<Cells>
[...]
<PointData  Scalars="f_6"> 
<DataArray  type="Float64"  Name="f_6"  format="ascii">-2.0000000000000000e+00  -1.8499999999999999e+00  -1.7000000000000000e+00  -1.5500000000000000e+00  -1.4000000000000001e+00  -1.2500000000000000e+00  -1.0999999999999999e+00  -9.5000000000000007e-01  -7.9999999999999993e-01  -6.5000000000000013e-01  -4.9999999999999994e-01  -3.4999999999999981e-01  -2.0000000000000007e-01  -4.9999999999999933e-02  9.9999999999999867e-02  2.5000000000000000e-01  4.0000000000000013e-01  5.4999999999999993e-01  7.0000000000000007e-01  8.4999999999999987e-01  1.0000000000000000e+00  -2.0000000000000000e+00  -2.0610731545079586e-01  4.3831619547459559e-02  1.1039399997759493e-01  1.3355778622323988e-01  1.3669367648703951e-01  1.2440654620658882e-01  9.9459209917116334e-02  6.1463477114320542e-02  -5.2908464124398922e-03  -4.9627858668433306e-02  -2.5044312667940851e-02  4.0366403310945952e-02  1.2249466050059153e-01  2.2080605072634718e-01  3.3533160497008541e-01  4.6171488249929316e-01  5.9341167247456650e-01  7.2780105802897799e-01  8.6359383880147389e-01  1.0000000000000000e+00  -2.0000000000000000e+00  8.8105784300757231e-02  2.2529312630518056e-01  2.4148642734083398e-01  2.3987285429254801e-01  2.2989187028185984e-01  2.0821138617123666e-01  1.7687393615780436e-01  1.5043663902351748e-01  1.2714632708875337e-01  1.1125344215731307e-01  1.1875289073948778e-01  1.5945648512687638e-01  2.2581466907670508e-01  3.1013394903165487e-01  4.0880548665470146e-01  5.1811625255252014e-01  6.3413074936999503e-01  7.5419872083987094e-01  8.7657429717691782e-01  1.0000000000000000e+00  -2.0000000000000000e+00  1.7491680036044385e-01  2.5508598826271933e-01  2.5975892458894417e-01  2.5592515803172960e-01  2.4801028206121065e-01  2.3705592005043094e-01  2.2182144796926026e-01  2.0523530492391306e-01  1.9507408055884598e-01  1.9592399957276654e-01  2.1385305321659084e-01  2.5289197738036678e-01  3.1117358164769765e-01  3.8510958966886583e-01  4.7164014006454530e-01  5.6781389168609075e-01  6.7079635161302331e-01  7.7828877878359337e-01  8.8850462906632710e-01  1.0000000000000000e+00  -2.0000000000000000e+00  2.1411303050995348e-01  2.6415572037295409e-01  2.6794889042175568e-01  2.6706799427674510e-01  2.6378221849552297e-01  2.5871162981891821e-01  2.5331112794235444e-01  2.4978705467403706e-01  2.5199069064995078e-01  2.6351542235831638e-01  2.8784334517374233e-01  3.2708478953030268e-01  3.8087809046485266e-01  4.4749068793156588e-01  5.2483159224852338e-01  6.1070282251427421e-01  7.0295198661241443e-01  7.9965541361515224e-01  8.9915544030479677e-01  1.0000000000000000e+00  -2.0000000000000000e+00  2.3584433046360520e-01  2.6897980543256705e-01  2.7463267415221509e-01  2.7700576361412893e-01  2.7846007517869986e-01  2.8011359713770828e-01  2.8292437930720238e-01  2.8861109517993011e-01  2.9958620500860389e-01  3.1830365403680577e-01  3.4692011558975949e-01  3.8672574510224900e-01  4.3776330274984432e-01  4.9914347934402209e-01  5.6949271848370797e-01  6.4721381951006818e-01  7.3065335870720827e-01  8.1822544875980441e-01  9.0846171853770874e-01  1.0000000000000000e+00  -2.0000000000000000e+00  2.4834166668056323e-01  2.7211205169867586e-01  2.8063579214883799e-01  2.8653300180503394e-01  2.9293872146743916e-01  3.0035830424601262e-01  3.0966169696881685e-01  3.2214674172987712e-01  3.3943938016772895e-01  3.6319287319054366e-01  3.9480771804624093e-01  4.3513477253908966e-01  4.8430589608825403e-01  5.4182720821097019e-01  6.0678198283221796e-01  6.7800637833508348e-01  7.5422217994654639e-01  8.3413130417914816e-01  9.1646598508623445e-01  1.0000000000000000e+00  -2.0000000000000000e+00  2.5287368947641908e-01  2.7443111797622838e-01  2.8574942578173335e-01  2.9555172998972978e-01  3.0640350464001032e-01  3.1871920141008614e-01  3.3321736259217533e-01  3.5087479460303284e-01  3.7283170074189115e-01  4.0022074051139911e-01  4.3398311086557112e-01  4.7469973091961459e-01  5.2249830085311200e-01  5.7707747457938696e-01  6.3780162629910964e-01  7.0380753105150129e-01  7.7409767856474643e-01  8.4761160292400783e-01  9.2327091762808078e-01  1.0000000000000000e+00  -2.0000000000000000e+00  2.5152514997524295e-01  2.7608148138343386e-01  2.8977985166200837e-01  3.0352098773214181e-01  3.1840436569278624e-01  3.3489763416214663e-01  3.5361375738676559e-01  3.7530337334818759e-01  4.0079188768540375e-01  4.3087527724759089e-01  4.6620425398502974e-01  5.0718273942068570e-01  5.5391010182519240e-01  6.0618276295435636e-01  6.6353951673333300e-01  7.2532444100706561e-01  7.9074940033693064e-01  8.5894651132405575e-01  9.2900608250208128e-01  1.0000000000000000e+00  -2.0000000000000000e+00  2.4601636676557251e-01  2.7663387795291072e-01  2.9308249475012610e-01  3.1034800358404280e-01  3.2879533623684593e-01  3.4885321215894899e-01  3.7103665944455283e-01  3.9593305371754822e-01  4.2415719940394525e-01  4.5628422680853087e-01  4.9277588840627129e-01  5.3391687095290608e-01  5.7977660407261555e-01  6.3020395867951273e-01  6.8484923667279984e-01  7.4320131590649752e-01  8.0462897045185500e-01  8.6841895953320303e-01  9.3380690105618891e-01  1.0000000000000000e+00  -2.0000000000000000e+00  2.3887451011299879e-01  2.7603027175145656e-01  2.9556824580154228e-01  3.1599319561705747e-01  3.3757576351160612e-01  3.6068321879225035e-01  3.8574661451494863e-01  4.1323498267350756e-01  4.4361962940429789e-01  4.7732854217631637e-01  5.1469820187861881e-01  5.5593225191205187e-01  6.0107548483285089e-01  6.5000723101827951e-01  7.0245215537185623e-01  7.5800261549427050e-01  8.1614620603078913e-01  8.7629345530071223e-01  9.3780256218947189e-01  1.0000000000000000e+00  -2.0000000000000000e+00  2.3112358052922688e-01  2.7460285550036223e-01  2.9716702108752918e-01  3.2048076957103866e-01  3.4483130340027079e-01  3.7055728498349783e-01  3.9803159714948422e-01  4.2764063305723532e-01  4.5975779336342271e-01  4.9471211061381781e-01  5.3275612501983549e-01  5.7403844998383213e-01  6.1858585232845642e-01  6.6629732518889861e-01  7.1694953830207575e-01  7.7021078466793902e-01  8.2565978287632036e-01  8.8280609344938510e-01  9.4110989240098619e-01  1.0000000000000000e+00  -2.0000000000000000e+00  2.2336500847749668e-01  2.7265258241392143e-01  2.9801621347717366e-01  3.2393155817929714e-01  3.5071139553494041e-01  3.7868302059198539e-01  4.0818185604225515e-01  4.3953815904252647e-01  4.7305880037833958e-01  5.0900598189569690e-01  5.4757573760307343e-01  5.8887957067498420e-01  6.3293214930824415e-01  6.7964667910678289e-01  7.2883788797960947e-01  7.8023120199908946e-01  8.3347604735716851e-01  8.8816124321952250e-01  9.4383091396508689e-01  1.0000000000000000e+00  -2.0000000000000000e+00  2.1602369158445972e-01  2.7045583704395737e-01  2.9831369222794685e-01  3.2651785413403606e-01  3.5539969996820830e-01  3.8528154580724822e-01  4.1647464738502443e-01  4.4927134669227586e-01  4.8393326721171231e-01  5.2067727898755711e-01  5.5966127282177702e-01  6.0097194580478797e-01  6.4461649512275343e-01  6.9051935395038000e-01  7.3852413251048921e-01  7.8840008799164141e-01  8.3985196133374251e-01  8.9253191810644972e-01  9.4605252023983899e-01  1.0000000000000000e+00  -2.0000000000000000e+00  2.0942304615987012e-01  2.6825998860234734e-01  2.9826486425662030e-01  3.2842646616069199e-01  3.5908800439660832e-01  3.9056881528377491e-01  4.2316384099831855e-01  4.5713931312984007e-01  4.9272564278867631e-01  5.3010859402104205e-01  5.6942012889168958e-01  6.1073044459963777e-01  6.5404253142760171e-01  6.9929010906149480e-01  7.4633920012032606e-01  7.9499305612324489e-01  8.4499979187971019e-01  8.9606194763269553e-01  9.4784724888781946e-01  1.0000000000000000e+00  -2.0000000000000000e+00  2.0382457278958419e-01  2.6627932533251597e-01  2.9805931003549496e-01  3.2983514185550333e-01  3.6195703617375835e-01  3.9474186993292470e-01  4.2847258819463474e-01  4.6339642204008957e-01  4.9972139679211036e-01  5.3761132541624523e-01  5.7718020412430149e-01  6.1848717227447103e-01  6.6153307692652141e-01  7.0625935074767232e-01  7.5254950278607557e-01  8.0023314450130190e-01  8.4909220242915773e-01  8.9886883165680298e-01  9.4927452767874365e-01  1.0000000000000000e+00  -2.0000000000000000e+00  1.9944057631706441e-01  2.6468856372615024e-01  2.9785790869734025e-01  3.3089775505206837e-01  3.6416312850999694e-01  3.9796904007953071e-01  4.3258821980720608e-01  4.6825239004377306e-01  5.0515219692343016e-01  5.4343510672752715e-01  5.8320218991480044e-01  6.2450496344742368e-01  6.6734325325634081e-01  7.1166471421659749e-01  7.5736631577500202e-01  8.0429781666672928e-01  8.5226704167881573e-01  9.0104664888661545e-01  9.5038203017035205e-01  1.0000000000000000e+00  -2.0000000000000000e+00  1.9635597358116466e-01  2.6360976207712661e-01  2.9778600597564758e-01  3.3173484114543322e-01  3.6582868273463015e-01  4.0038294206799502e-01  4.3565886091088596e-01  4.7187272140436659e-01  5.0919989413030975e-01  5.4777471465563299e-01  5.8768848535994944e-01  6.2898723834408243e-01  6.7167025843482098e-01  7.1568993708737516e-01  7.6095322943060628e-01  8.0732476471179793e-01  8.5463149873276012e-01  9.0266869204049072e-01  9.5120694411604945e-01  1.0000000000000000e+00  -2.0000000000000000e+00  1.9417939364320538e-01  2.6312480545821915e-01  2.9794151198269025e-01  3.3242692081938668e-01  3.6703381921509554e-01  4.0207518454693314e-01  4.3779156036397615e-01  4.7437974053249782e-01  5.1199994353780898e-01  5.5077537240474594e-01  5.9078979852528157e-01  6.3208524613413630e-01  6.7466060505148540e-01  7.1847154626747600e-01  7.6343190014824980e-01  8.0941651401709624e-01  8.5626549649993688e-01  9.0378967642653874e-01  9.5177705425335557e-01  1.0000000000000000e+00  -2.0000000000000000e+00  1.9144731978273941e-01  2.6354219608537038e-01  2.9842831567750772e-01  3.3299751093432778e-01  3.6780448875943217e-01  4.0309241654066580e-01  4.3905245546558780e-01  4.7585473682383983e-01  5.1364476708368190e-01  5.5253703290026035e-01  5.9261009020229416e-01  6.3390334261569647e-01  6.7641536936950863e-01  7.2010374278279388e-01  7.6488631087782022e-01  8.1064389470840070e-01  8.5722429682335255e-01  9.0444746291237188e-01  9.5211159647083377e-01  1.0000000000000000e+00  -2.0000000000000000e+00  1.9070731931229082e-01  2.6674122499457054e-01  2.9923204370764256e-01  3.3333031848098443e-01  3.6809420834763967e-01  4.0343753739071014e-01  4.3947110813386936e-01  4.7634198421359197e-01  5.1418735507281899e-01  5.5311790191031962e-01  5.9321018676793902e-01  6.3450266475684769e-01  6.7699378702805901e-01  7.2064174461637076e-01  7.6536570587183639e-01  8.1104845711533480e-01  8.5754033317270106e-01  9.0466428192876314e-01  9.5222186871760783e-01  1.0000000000000000e+00  </DataArray> 
</PointData> 
</Piece>
</UnstructuredGrid>
</VTKFile>