<?xml version="1.0"?>
<VTKFile type="UnstructuredGrid"  version="0.1"  >
<UnstructuredGrid>
<Piece  NumberOfPoints="4225" NumberOfCells="8192">
<Points>
<DataArray  type="Float64"  NumberOfComponents="3"  format="ascii">0 0 0  0.015625 0 0  0.03125 0 0  0.046875 0 0  0.0625 0 0  0.078125 0 0  0.09375 0 0  0.109375 0 0  0.125 0 0  0.140625 0 0  0.15625 0 0  0.171875 0 0  0.1875 0 0  0.203125 0 0  0.21875 0 0  0.234375 0 0  0.25 0 0  0.265625 0 0  0.28125 0 0  0.296875 0 0  0.3125 0 0  0.328125 0 0  0.34375 0 0  0.359375 0 0  0.375 0 0  0.390625 0 0  0.40625 0 0  0.421875 0 0  0.4375 0 0  0.453125 0 0  0.46875 0 0  0.484375 0 0  0.5 0 0  0.515625 0 0  0.53125 0 0  0.546875 0 0  0.5625 0 0  0.578125 0 0  0.59375 0 0  0.609375 0 0  0.625 0 0  0.640625 0 0  0.65625 0 0  0.671875 0 0  0.6875 0 0  0.703125 0 0  0.71875 0 0  0.734375 0 0  0.75 0 0  0.765625 0 0  0.78125 0 0  0.796875 0 0  0.8125 0 0  0.828125 0 0  0.84375 0 0  0.859375 0 0  0.875 0 0  0.890625 0 0  0.90625 0 0  0.921875 0 0  0.9375 0 0  0.953125 0 0  0.96875 0 0  0.984375 0 0  1 0 0  0 0.015625 0  0.015625 0.015625 0  0.03125 0.015625 0  0.046875 0.015625 0  0.0625 0.015625 0  0.078125 0.015625 0  0.09375 0.015625 0  0.109375 0.015625 0  0.125 0.015625 0  0.140625 0.015625 0  0.15625 0.015625 0  0.171875 0.015625 0  0.1875 0.015625 0  0.203125 0.015625 0  0.21875 0.015625 0  0.234375 0.015625 0  0.25 0.015625 0  0.265625 0.015625 0  0.28125 0.015625 0  0.296875 0.015625 0  0.3125 0.015625 0  0.328125 0.015625 0  0.34375 0.015625 0  0.359375 0.015625 0  0.375 0.015625 0  0.390625 0.015625 0  0.40625 0.015625 0  0.421875 0.015625 0  0.4375 0.015625 0  0.453125 0.015625 0  0.46875 0.015625 0  0.484375 0.015625 0  0.5 0.015625 0  0.515625 0.015625 0  0.53125 0.015625 0  0.546875 0.015625 0  0.5625 0.015625 0  0.578125 0.015625 0  0.59375 0.015625 0  0.609375 0.015625 0  0.625 0.015625 0  0.640625 0.015625 0  0.65625 0.015625 0  0.671875 0.015625 0  0.6875 0.015625 0  0.703125 0.015625 0  0.71875 0.015625 0  0.734375 0.015625 0  0.75 0.015625 0  0.765625 0.015625 0  0.78125 0.015625 0  0.796875 0.015625 0  0.8125 0.015625 0  0.828125 0.015625 0  0.84375 0.015625 0  0.859375 0.015625 0  0.875 0.015625 0  0.890625 0.015625 0  0.90625 0.015625 0  0.921875 0.015625 0  0.9375 0.015625 0  0.953125 0.015625 0  0.96875 0.015625 0  0.984375 0.015625 0  1 0.015625 0  0 0.03125 0  0.015625 0.03125 0  0.03125 0.03125 0  0.046875 0.03125 0  0.0625 0.03125 0  0.078125 0.03125 0  0.09375 0.03125 0  0.109375 0.03125 0  0.125 0.03125 0  0.140625 0.03125 0  0.15625 0.03125 0  0.171875 0.03125 0  0.1875 0.03125 0  0.203125 0.03125 0  0.21875 0.03125 0  0.234375 0.03125 0  0.25 0.03125 0  0.265625 0.03125 0  0.28125 0.03125 0  0.296875 0.03125 0  0.3125 0.03125 0  0.328125 0.03125 0  0.34375 0.03125 0  0.359375 0.03125 0  0.375 0.03125 0  0.390625 0.03125 0  0.40625 0.03125 0  0.421875 0.03125 0  0.4375 0.03125 0  0.453125 0.03125 0  0.46875 0.03125 0  0.484375 0.03125 0  0.5 0.03125 0  0.515625 0.03125 0  0.53125 0.03125 0  0.546875 0.03125 0  0.5625 0.03125 0  0.578125 0.03125 0  0.59375 0.03125 0  0.609375 0.03125 0  0.625 0.03125 0  0.640625 0.03125 0  0.65625 0.03125 0  0.671875 0.03125 0  0.6875 0.03125 0  0.703125 0.03125 0  0.71875 0.03125 0  0.734375 0.03125 0  0.75 0.03125 0  0.765625 0.03125 0  0.78125 0.03125 0  0.796875 0.03125 0  0.8125 0.03125 0  0.828125 0.03125 0  0.84375 0.03125 0  0.859375 0.03125 0  0.875 0.03125 0  0.890625 0.03125 0  0.90625 0.03125 0  0.921875 0.03125 0  0.9375 0.03125 0  0.953125 0.03125 0  0.96875 0.03125 0  0.984375 0.03125 0  1 0.03125 0  0 0.046875 0  0.015625 0.046875 0  0.03125 0.046875 0  0.046875 0.046875 0  0.0625 0.046875 0  0.078125 0.046875 0  0.09375 0.046875 0  0.109375 0.046875 0  0.125 0.046875 0  0.140625 0.046875 0  0.15625 0.046875 0  0.171875 0.046875 0  0.1875 0.046875 0  0.203125 0.046875 0  0.21875 0.046875 0  0.234375 0.046875 0  0.25 0.046875 0  0.265625 0.046875 0  0.28125 0.046875 0  0.296875 0.046875 0  0.3125 0.046875 0  0.328125 0.046875 0  0.34375 0.046875 0  0.359375 0.046875 0  0.375 0.046875 0  0.390625 0.046875 0  0.40625 0.046875 0  0.421875 0.046875 0  0.4375 0.046875 0  0.453125 0.046875 0  0.46875 0.046875 0  0.484375 0.046875 0  0.5 0.046875 0  0.515625 0.046875 0  0.53125 0.046875 0  0.546875 0.046875 0  0.5625 0.046875 0  0.578125 0.046875 0  0.59375 0.046875 0  0.609375 0.046875 0  0.625 0.046875 0  0.640625 0.046875 0  0.65625 0.046875 0  0.671875 0.046875 0  0.6875 0.046875 0  0.703125 0.046875 0  0.71875 0.046875 0  0.734375 0.046875 0  0.75 0.046875 0  0.765625 0.046875 0  0.78125 0.046875 0  0.796875 0.046875 0  0.8125 0.046875 0  0.828125 0.046875 0  0.84375 0.046875 0  0.859375 0.046875 0  0.875 0.046875 0  0.890625 0.046875 0  0.90625 0.046875 0  0.921875 0.046875 0  0.9375 0.046875 0  0.953125 0.046875 0  0.96875 0.046875 0  0.984375 0.046875 0  1 0.046875 0  0 0.0625 0  0.015625 0.0625 0  0.03125 0.0625 0  0.046875 0.0625 0  0.0625 0.0625 0  0.078125 0.0625 0  0.09375 0.0625 0  0.109375 0.0625 0  0.125 0.0625 0  0.140625 0.0625 0  0.15625 0.0625 0  0.171875 0.0625 0  0.1875 0.0625 0  0.203125 0.0625 0  0.21875 0.0625 0  0.234375 0.0625 0  0.25 0.0625 0  0.265625 0.0625 0  0.28125 0.0625 0  0.296875 0.0625 0  0.3125 0.0625 0  0.328125 0.0625 0  0.34375 0.0625 0  0.359375 0.0625 0  0.375 0.0625 0  0.390625 0.0625 0  0.40625 0.0625 0  0.421875 0.0625 0  0.4375 0.0625 0  0.453125 0.0625 0  0.46875 0.0625 0  0.484375 0.0625 0  0.5 0.0625 0  0.515625 0.0625 0  0.53125 0.0625 0  0.546875 0.0625 0  0.5625 0.0625 0  0.578125 0.0625 0  0.59375 0.0625 0  0.609375 0.0625 0  0.625 0.0625 0  0.640625 0.0625 0  0.65625 0.0625 0  0.671875 0.0625 0  0.6875 0.0625 0  0.703125 0.0625 0  0.71875 0.0625 0  0.734375 0.0625 0  0.75 0.0625 0  0.765625 0.0625 0  0.78125 0.0625 0  0.796875 0.0625 0  0.8125 0.0625 0  0.828125 0.0625 0  0.84375 0.0625 0  0.859375 0.0625 0  0.875 0.0625 0  0.890625 0.0625 0  0.90625 0.0625 0  0.921875 0.0625 0  0.9375 0.0625 0  0.953125 0.0625 0  0.96875 0.0625 0  0.984375 0.0625 0  1 0.0625 0  0 0.078125 0  0.015625 0.078125 0  0.03125 0.078125 0  0.046875 0.078125 0  0.0625 0.078125 0  0.078125 0.078125 0  0.09375 0.078125 0  0.109375 0.078125 0  0.125 0.078125 0  0.140625 0.078125 0  0.15625 0.078125 0  0.171875 0.078125 0  0.1875 0.078125 0  0.203125 0.078125 0  0.21875 0.078125 0  0.234375 0.078125 0  0.25 0.078125 0  0.265625 0.078125 0  0.28125 0.078125 0  0.296875 0.078125 0  0.3125 0.078125 0  0.328125 0.078125 0  0.34375 0.078125 0  0.359375 0.078125 0  0.375 0.078125 0  0.390625 0.078125 0  0.40625 0.078125 0  0.421875 0.078125 0  0.4375 0.078125 0  0.453125 0.078125 0  0.46875 0.078125 0  0.484375 0.078125 0  0.5 0.078125 0  0.515625 0.078125 0  0.53125 0.078125 0  0.546875 0.078125 0  0.5625 0.078125 0  0.578125 0.078125 0  0.59375 0.078125 0  0.609375 0.078125 0  0.625 0.078125 0  0.640625 0.078125 0  0.65625 0.078125 0  0.671875 0.078125 0  0.6875 0.078125 0  0.703125 0.078125 0  0.71875 0.078125 0  0.734375 0.078125 0  0.75 0.078125 0  0.765625 0.078125 0  0.78125 0.078125 0  0.796875 0.078125 0  0.8125 0.078125 0  0.828125 0.078125 0  0.84375 0.078125 0  0.859375 0.078125 0  0.875 0.078125 0  0.890625 0.078125 0  0.90625 0.078125 0  0.921875 0.078125 0  0.9375 0.078125 0  0.953125 0.078125 0  0.96875 0.078125 0  0.984375 0.078125 0  1 0.078125 0  0 0.09375 0  0.015625 0.09375 0  0.03125 0.09375 0  0.046875 0.09375 0  0.0625 0.09375 0  0.078125 0.09375 0  0.09375 0.09375 0  0.109375 0.09375 0  0.125 0.09375 0  0.140625 0.09375 0  0.15625 0.09375 0  0.171875 0.09375 0  0.1875 0.09375 0  0.203125 0.09375 0  0.21875 0.09375 0  0.234375 0.09375 0  0.25 0.09375 0  0.265625 0.09375 0  0.28125 0.09375 0  0.296875 0.09375 0  0.3125 0.09375 0  0.328125 0.09375 0  0.34375 0.09375 0  0.359375 0.09375 0  0.375 0.09375 0  0.390625 0.09375 0  0.40625 0.09375 0  0.421875 0.09375 0  0.4375 0.09375 0  0.453125 0.09375 0  0.46875 0.09375 0  0.484375 0.09375 0  0.5 0.09375 0  0.515625 0.09375 0  0.53125 0.09375 0  0.546875 0.09375 0  0.5625 0.09375 0  0.578125 0.09375 0  0.59375 0.09375 0  0.609375 0.09375 0  0.625 0.09375 0  0.640625 0.09375 0  0.65625 0.09375 0  0.671875 0.09375 0  0.6875 0.09375 0  0.703125 0.09375 0  0.71875 0.09375 0  0.734375 0.09375 0  0.75 0.09375 0  0.765625 0.09375 0  0.78125 0.09375 0  0.796875 0.09375 0  0.8125 0.09375 0  0.828125 0.09375 0  0.84375 0.09375 0  0.859375 0.09375 0  0.875 0.09375 0  0.890625 0.09375 0  0.90625 0.09375 0  0.921875 0.09375 0  0.9375 0.09375 0  0.953125 0.09375 0  0.96875 0.09375 0  0.984375 0.09375 0  1 0.09375 0  0 0.109375 0  0.015625 0.109375 0  0.03125 0.109375 0  0.046875 0.109375 0  0.0625 0.109375 0  0.078125 0.109375 0  0.09375 0.109375 0  0.109375 0.109375 0  0.125 0.109375 0  0.140625 0.109375 0  0.15625 0.109375 0  0.171875 0.109375 0  0.1875 0.109375 0  0.203125 0.109375 0  0.21875 0.109375 0  0.234375 0.109375 0  0.25 0.109375 0  0.265625 0.109375 0  0.28125 0.109375 0  0.296875 0.109375 0  0.3125 0.109375 0  0.328125 0.109375 0  0.34375 0.109375 0  0.359375 0.109375 0  0.375 0.109375 0  0.390625 0.109375 0  0.40625 0.109375 0  0.421875 0.109375 0  0.4375 0.109375 0  0.453125 0.109375 0  0.46875 0.109375 0  0.484375 0.109375 0  0.5 0.109375 0  0.515625 0.109375 0  0.53125 0.109375 0  0.546875 0.109375 0  0.5625 0.109375 0  0.578125 0.109375 0  0.59375 0.109375 0  0.609375 0.109375 0  0.625 0.109375 0  0.640625 0.109375 0  0.65625 0.109375 0  0.671875 0.109375 0  0.6875 0.109375 0  0.703125 0.109375 0  0.71875 0.109375 0  0.734375 0.109375 0  0.75 0.109375 0  0.765625 0.109375 0  0.78125 0.109375 0  0.796875 0.109375 0  0.8125 0.109375 0  0.828125 0.109375 0  0.84375 0.109375 0  0.859375 0.109375 0  0.875 0.109375 0  0.890625 0.109375 0  0.90625 0.109375 0  0.921875 0.109375 0  0.9375 0.109375 0  0.953125 0.109375 0  0.96875 0.109375 0  0.984375 0.109375 0  1 0.109375 0  0 0.125 0  0.015625 0.125 0  0.03125 0.125 0  0.046875 0.125 0  0.0625 0.125 0  0.078125 0.125 0  0.09375 0.125 0  0.109375 0.125 0  0.125 0.12
[...]
<PointData  Scalars="f_6"> 
<DataArray  type="Float64"  Name="f_6"  format="ascii">-2.0000000000000000e+00  -1.9531250000000000e+00  -1.9062500000000000e+00  -1.8593750000000000e+00  -1.8125000000000000e+00  -1.7656250000000000e+00  -1.7187500000000000e+00  -1.6718750000000000e+00  -1.6250000000000000e+00  -1.5781250000000000e+00  -1.5312500000000000e+00  -1.4843750000000000e+00  -1.4375000000000000e+00  -1.3906250000000000e+00  -1.3437500000000000e+00  -1.2968750000000000e+00  -1.2500000000000000e+00  -1.2031250000000000e+00  -1.1562500000000000e+00  -1.1093750000000000e+00  -1.0625000000000000e+00  -1.0156250000000000e+00  -9.6875000000000000e-01  -9.2187500000000000e-01  -8.7500000000000000e-01  -8.2812500000000000e-01  -7.8125000000000000e-01  -7.3437500000000000e-01  -6.8750000000000000e-01  -6.4062500000000000e-01  -5.9375000000000000e-01  -5.4687500000000000e-01  -5.0000000000000000e-01  -4.5312500000000006e-01  -4.0625000000000000e-01  -3.5937500000000000e-01  -3.1250000000000000e-01  -2.6562500000000000e-01  -2.1874999999999997e-01  -1.7187500000000000e-01  -1.2500000000000000e-01  -7.8125000000000000e-02  -3.1250000000000000e-02  1.5625000000000000e-02  6.2500000000000000e-02  1.0937500000000000e-01  1.5625000000000000e-01  2.0312500000000000e-01  2.5000000000000000e-01  2.9687500000000000e-01  3.4375000000000000e-01  3.9062500000000000e-01  4.3750000000000000e-01  4.8437500000000000e-01  5.3125000000000000e-01  5.7812500000000000e-01  6.2500000000000000e-01  6.7187500000000000e-01  7.1875000000000000e-01  7.6562500000000000e-01  8.1250000000000000e-01  8.5937500000000000e-01  9.0625000000000000e-01  9.5312500000000000e-01  1.0000000000000000e+00  -2.0000000000000000e+00  -1.9132719121367112e+00  -1.8332352501682825e+00  -1.7584631959472439e+00  -1.6880337104318404e+00  -1.6212769544352266e+00  -1.5576733292213942e+00  -1.4968041480904954e+00  -1.4383239329622288e+00  -1.3819430055274018e+00  -1.3274156264301757e+00  -1.2745314378934920e+00  -1.2231090329366436e+00  -1.1729909784673687e+00  -1.1240398790831885e+00  -1.0761352123680930e+00  -1.0291707516315081e+00  -9.8305244534880321e-01  -9.3769665766900723e-01  -8.9302869860835288e-01  -8.4898159017743424e-01  -8.0549502831521336e-01  -7.6251451189374375e-01  -7.1999062055826535e-01  -6.7787843407837800e-01  -6.3613709906072990e-01  -5.9472956760274298e-01  -5.5362256164139478e-01  -5.1278685826291337e-01  -4.7219802502207520e-01  -4.3183767068314627e-01  -3.9169488243288947e-01  -3.5176645753455354e-01  -3.1205324877222651e-01  -2.7255321186793374e-01  -2.3327040437522223e-01  -1.9426665796188244e-01  -1.5564938376988249e-01  -1.1735332375908483e-01  -7.9135880144007256e-02  -4.4580998014926577e-02  -1.1929393409766105e-02  2.1762080038282866e-02  5.7385069590986860e-02  9.6133392106048030e-02  1.3800962824916593e-01  1.8130772986903920e-01  2.2537323894689301e-01  2.6991173012117958e-01  3.1477044067862858e-01  3.5986041543105307e-01  4.0512505942553956e-01  4.5052585831918174e-01  4.9603519859677442e-01  5.4163243862899502e-01  5.8730160505702445e-01  6.3302996377748411e-01  6.7880709090288549e-01  7.2462424403184311e-01  7.7047392128703340e-01  8.1634954154808670e-01  8.6224520476780553e-01  9.0815550593372552e-01  9.5407538495239819e-01  1.0000000000000000e+00  -2.0000000000000000e+00  -1.8765490748370388e+00  -1.7679248401877496e+00  -1.6707173962504145e+00  -1.5825768445224635e+00  -1.5018047570556734e+00  -1.4271263315605764e+00  -1.3575567242565996e+00  -1.2923179534450404e+00  -1.2307844932798302e+00  -1.1724460931567049e+00  -1.1168814750216909e+00  -1.0637391990080198e+00  -1.0127234224620820e+00  -9.6358309830061817e-01  -9.1610365025143836e-01  -8.7010046891454240e-01  -8.2541377025384288e-01  -7.8190448962166081e-01  -7.3945097440570318e-01  -6.9794630180739081e-01  -6.5729609455770521e-01  -6.1741674280865766e-01  -5.7823396935289673e-01  -5.3968170101332169e-01  -5.0170123481930995e-01  -4.6424071891257529e-01  -4.2725501610514927e-01  -3.9070610101612258e-01  -3.5456427257734163e-01  -3.1881059066899708e-01  -2.8344077337649642e-01  -2.4846933145295613e-01  -2.1392778901806492e-01  -1.7984463655467450e-01  -1.4623156096781054e-01  -1.1324344244529740e-01  -8.1393679309815600e-02  -5.0933968817478137e-02  -2.3026604305552579e-02  3.0223089610961194e-03  2.9784083391124472e-02  5.8753752760762508e-02  9.0820090670618803e-02  1.2663887058403925e-01  1.6522239102157657e-01  2.0559805228009784e-01  2.4714849579735343e-01  2.8950324085919665e-01  3.3243461716228212e-01  3.7579616162004403e-01  4.1948896395192364e-01  4.6344317525441331e-01  5.0760749743892097e-01  5.5194295086218126e-01  5.9641901782161877e-01  6.4101115915002660e-01  6.8569915580221574e-01  7.3046596393745367e-01  7.7529689956820347e-01  8.2017904013750764e-01  8.6510077158941012e-01  9.1005143401469824e-01  9.5502103387586734e-01  1.0000000000000000e+00  -2.0000000000000000e+00  -1.8423645284210857e+00  -1.7089836747317175e+00  -1.5935600246567210e+00  -1.4918777261400666e+00  -1.4009921913086034e+00  -1.3187721942920114e+00  -1.2436290463222321e+00  -1.1743492125993673e+00  -1.1099866314683220e+00  -1.0497909523203663e+00  -9.9315822451993441e-01  -9.3959610657591741e-01  -8.8869875320654668e-01  -8.4012832557604833e-01  -7.9360114085309441e-01  -7.4887713914456588e-01  -7.0575176674652507e-01  -6.6404964930602750e-01  -6.2361961214379469e-01  -5.8433073090018528e-01  -5.4606918455060205e-01  -5.0873574808486899e-01  -4.7224381268380783e-01  -4.3651786300383050e-01  -4.0149237826287382e-01  -3.6711116100225855e-01  -3.3332714775515482e-01  -3.0010285607085913e-01  -2.6741185134912360e-01  -2.3524209948222510e-01  -2.0360291007741466e-01  -1.7253789841626180e-01  -1.4214158857515055e-01  -1.1253535715194078e-01  -8.3717496704349817e-02  -5.5709540451077233e-02  -3.0675871533272798e-02  -7.7937770317161210e-03  1.4423796987855913e-02  3.6867826463907710e-02  6.1499708310292674e-02  8.9508649025218143e-02  1.2050266974668652e-01  1.5437960853791369e-01  1.9064301297300290e-01  2.2871359243242223e-01  2.6811945110322616e-01  3.0851812035597154e-01  3.4966862549125921e-01  3.9140064993491747e-01  4.3359145950769762e-01  4.7615038130762694e-01  5.1900866504231558e-01  5.6211284955919039e-01  6.0542035621724277e-01  6.4889649919878756e-01  6.9251240921849733e-01  7.3624355634755256e-01  7.8006867291081938e-01  8.2396894784433028e-01  8.6792740743762953e-01  9.1192842465979040e-01  9.5595731653637239e-01  1.0000000000000000e+00  -2.0000000000000000e+00  -1.8104080834540053e+00  -1.6554690807883636e+00  -1.5251185980924273e+00  -1.4129401447036229e+00  -1.3146291077533567e+00  -1.2271765158016166e+00  -1.1484070103167758e+00  -1.0767033217123760e+00  -1.0108345644552876e+00  -9.4984511979362474e-01  -8.9298035088582728e-01  -8.3963552169014111e-01  -7.8931979866466595e-01  -7.4163033131638467e-01  -6.9623323524859371e-01  -6.5284940753178555e-01  -6.1124379319677291e-01  -5.7121716212120233e-01  -5.3259974414079281e-01  -4.9524626391517457e-01  -4.5903205076417747e-01  -4.2384999453272815e-01  -3.8960819123999718e-01  -3.5622818144331198e-01  -3.2364373476360903e-01  -2.9180017629635430e-01  -2.6065428789675371e-01  -2.3017488260658192e-01  -2.0034436105847306e-01  -1.7116220079947195e-01  -1.4265313676622079e-01  -1.1488831834122117e-01  -8.8052136385637927e-02  -6.2570182625942425e-02  -3.8548782110723212e-02  -1.6774688284827526e-02  3.0979361789654734e-03  2.2723974232006245e-02  4.3104472990709942e-02  6.5127974218941953e-02  8.9838274360920414e-02  1.1727846528313073e-01  1.4730233075299551e-01  1.7973388084792616e-01  2.1425645990009912e-01  2.5049385337336222e-01  2.8809759582715749e-01  3.2678116397020396e-01  3.6632111451186583e-01  4.0654635312066900e-01  4.4732584283632237e-01  4.8855822542608102e-01  5.3016393186352395e-01  5.7207942611502083e-01  6.1425305828937460e-01  6.5664207220938275e-01  6.9921042552543355e-01  7.4192717932343999e-01  7.8476528788319122e-01  8.2770067089136468e-01  8.7071148565698753e-01  9.1377754065046135e-01  9.5687980760983127e-01  1.0000000000000000e+00  -2.0000000000000000e+00  -1.7804825623665170e+00  -1.6066763294889685e+00  -1.4639911500939995e+00  -1.3435839537518788e+00  -1.2397501081824942e+00  -1.1486262538493914e+00  -1.0674920282554474e+00  -9.9436983120881783e-01  -9.2778338859399268e-01  -8.6660577505259972e-01  -8.0996023697832098e-01  -7.5715344050503286e-01  -7.0762932624648212e-01  -6.6093645851573535e-01  -6.1670444882010944e-01  -5.7462662768258066e-01  -5.3444711248381038e-01  -4.9595103037744487e-01  -4.5895704916238461e-01  -4.2331162909351078e-01  -3.8888458520992103e-01  -3.5556567447468473e-01  -3.2326201632231005e-01  -2.9189623466269654e-01  -2.6140528328970514e-01  -2.3173998239897803e-01  -2.0286533427282014e-01  -1.7476170028323898e-01  -1.4742702083565049e-01  -1.2088074819158071e-01  -9.5171445855718947e-02  -7.0394146599238594e-02  -4.6678120614673614e-02  -2.5717219634384194e-02  -6.8027186881022108e-03  1.1134037067933717e-02  2.8773920221895080e-02  4.7485779898923802e-02  6.8146406012193544e-02  9.0701323060229780e-02  1.1544694963131633e-01  1.4246460699338886e-01  1.7169430713423861e-01  2.0299712420069632e-01  2.3615509240610524e-01  2.7090776533376998e-01  3.0699591486183730e-01  3.4418782518582097e-01  3.8228831546533104e-01  4.2113780519957039e-01  4.6060733329084169e-01  5.0059274569685064e-01  5.4100941087067833e-01  5.8178786474799449e-01  6.2287037861585115e-01  6.6420830582393542e-01  7.0576004135041426e-01  7.4748944753758251e-01  7.8936462840714128e-01  8.3135696218094968e-01  8.7344032364849433e-01  9.1559044467523654e-01  9.5778437325249099e-01  1.0000000000000000e+00  -2.0000000000000000e+00  -1.7524431311472690e+00  -1.5620531076385846e+00  -1.4090982600797597e+00  -1.2821778686542800e+00  -1.1741975938358415e+00  -1.0804865444067924e+00  -9.9782987178166460e-01  -9.2393425489936254e-01  -8.5711488100892430e-01  -7.9610319106756644e-01  -7.3992400432294247e-01  -6.8781429052828702e-01  -6.3916789781423733e-01  -5.9349699057817185e-01  -5.5040455640563246e-01  -5.0956443417032982e-01  -4.7070657197475557e-01  -4.3360600067585570e-01  -3.9807450259954447e-01  -3.6395427719162765e-01  -3.3111312142902249e-01  -2.9944079363698134e-01  -2.6884634359664278e-01  -2.3925629450746458e-01  -2.1061367772894701e-01  -1.8287806107675503e-01  -1.5602684607198619e-01  -1.3005818993131035e-01  -1.0499613801106922e-01  -8.0900011314617909e-02  -5.7885191399836250e-02  -3.6174979965265780e-02  -1.6887530297715562e-02  2.3019191570646441e-04  1.6716309634157427e-02  3.3446001268992491e-02  5.1043717663193613e-02  7.0298819129600384e-02  9.1294048098910702e-02  1.1408396237846732e-01  1.3878359411072630e-01  1.6543870592486992e-01  1.9401316658987378e-01  2.2440521641451525e-01  2.5645902018985584e-01  2.8998620069377518e-01  3.2479047310060022e-01  3.6068590644591175e-01  3.9750651696406747e-01  4.3510921892143933e-01  4.7337293943062331e-01  5.1219601319980157e-01  5.5149310117434436e-01  5.9119224339042742e-01  6.3123228560210021e-01  6.7156073112009429e-01  7.1213198651470566e-01  7.5290594106933395e-01  7.9384681602684160e-01  8.3492222577679820e-01  8.7610240208080359e-01  9.1735954114949947e-01  9.5866724072489606e-01  1.0000000000000000e+00  -2.0000000000000000e+00  -1.7261725619613233e+00  -1.5211512992985552e+00  -1.3595888297241518e+00  -1.2274715241751832e+00  -1.1163582299208941e+00  -1.0208283685814914e+00  -9.3722423138468436e-01  -8.6297831488399346e-01  -7.9622954622205744e-01  -7.3559255901649856e-01  -6.8001284482397018e-01  -6.2867244712784043e-01  -5.8092663101714392e-01  -5.3626020947819764e-01  -4.9425672884749161e-01  -4.5457629733110300e-01  -4.1693936752039312e-01  -3.8111471637205352e-01  -3.4691045254255293e-01  -3.1416726025273467e-01  -2.8275334141926922e-01  -2.5256069245747537e-01  -2.2350248338394710e-01  -1.9551143109901062e-01  -1.6853923326794149e-01  -1.4255743393619402e-01  -1.1756055682008384e-01  -9.3572864618911469e-02  -7.0661294187925064e-02  -4.8961053647926807e-02  -2.8783701296732890e-02  -1.0825436812036703e-02  5.2434365055424332e-03  2.0513336950869775e-02  3.6309022994066555e-02  5.3380345149787650e-02  7.1656130032286547e-02  9.1371730857373393e-02  1.1264700487538148e-01  1.3555688424400253e-01  1.6016475850825171e-01  1.8649345600549069e-01  2.1451443688587143e-01  2.4415155467763505e-01  2.7528957124502773e-01  3.0778754415087456e-01  3.4149387040087681e-01  3.7625881053315824e-01  4.1194262702358797e-01  4.4841961409149622e-01  4.8557919231041075e-01  5.2332526649738809e-01  5.6157473723647000e-01  6.0025572203727073e-01  6.3930578928202875e-01  6.7867034653963587e-01  7.1830123251898015e-01  7.5815551419820582e-01  7.9819446885409340e-01  8.3838272281859794e-01  8.7868751774842213e-01  9.1907807711706169e-01  9.5952504849759379e-01  1.0000000000000000e+00  -2.0000000000000000e+00  -1.7015700307391477e+00  -1.4835982507106167e+00  -1.3147784459845622e+00  -1.1784865377876839e+00  -1.0649973215121655e+00  -9.6820207447389783e-01  -8.8404931443797419e-01  -8.0973435561322549e-01  -7.4324733410770738e-01  -6.8310647263367885e-01  -6.2819318038707717e-01  -5.7764607797521428e-01  -5.3079062086499307e-01  -4.8709103817147009e-01  -4.4611671730946723e-01  -4.0751821118696102e-01  -3.7100982436726143e-01  -3.3635681029386255e-01  -3.0336588286439164e-01  -2.7187817816516591e-01  -2.4176409083357409e-01  -2.1291961000925358e-01  -1.8526392821816823e-01  -1.5873823392116923e-01  -1.3330582951218517e-01  -1.0895431596661483e-01  -8.5701990035573355e-02  -6.3613192618622375e-02  -4.2829891350183030e-02  -2.3738591465245210e-02  -6.7583103597692682e-03  8.5816892114429690e-03  2.3258431075670383e-02  3.8350176739145862e-02  5.4626100241451363e-02  7.2110226303805036e-02  9.0828726458791476e-02  1.1088496939222517e-01  1.3236535630123933e-01  1.5533181121390960e-01  1.7982509967278740e-01  2.0585592270296965e-01  2.3339957027048630e-01  2.6239699416512585e-01  2.9276016596174564e-01  3.2438053426381847e-01  3.5713865381887383e-01  3.9091283826225670e-01  4.2558556650562995e-01  4.6104741811054684e-01  4.9719894922213548e-01  5.3395112324287042e-01  5.7122485923687683e-01  6.0895011824015699e-01  6.4706480294910884e-01  6.8551363323744063e-01  7.2424708282337313e-01  7.6322041435041621e-01  8.0239282237272835e-01  8.4172667889507835e-01  8.8118686897722487e-01  9.2074020107273147e-01  9.6035487614841730e-01  1.0000000000000000e+00  -2.0000000000000000e+00  -1.6785456137155710e+00  -1.4490785380197626e+00  -1.2741077471177920e+00  -1.1344437064777060e+00  -1.0191509948475836e+00  -9.2149384108219667e-01  -8.3707199556529122e-01  -7.6287583737844411e-01  -6.9676978508438270e-01  -6.3719229420317780e-01  -5.8297283811347500e-01  -5.3321559430151266e-01  -4.8722293596342858e-01  -4.4444361654050324e-01  -4.0443679761639084e-01  -3.6684655131638272e-01  -3.3138348076872642e-01  -2.9781130822586183e-01  -2.6593702908369043e-01  -2.3560371354454701e-01  -2.0668536672551591e-01  -1.7908349801320006e-01  -1.5272523780644334e-01  -1.2756299956822337e-01  -1.0357593450415541e-01  -8.0774430537569317e-02  -5.9213031602310361e-02  -3.9024714912392337e-02  -2.0634648450046915e-02  -4.3360084201768973e-03  1.0458068755687796e-02  2.4713313065599672e-02  3.9356662015429068e-02  5.5002838688591911e-02  7.1734974928788039e-02  8.9605733365189649e-02  1.0866358010684914e-01  1.2897406395149649e-01  1.5059763972344109e-01  1.7357990463760914e-01  1.9794790626601866e-01  2.2370556486311430e-01  2.5083092732797840e-01  2.7927668575063647e-01  3.0897356417301042e-01  3.3983577312377994e-01  3.7176737234854385e-01  4.0466832219136489e-01  4.3843938262612836e-01  4.7298554262292558e-01  5.0821806322471397e-01  5.4405541801508139e-01  5.8042345822800967e-01  6.1725508873737145e-01  6.5448967103680944e-01  6.9207230063764469e-01  7.2995305118665565e-01  7.6808623800735776e-01  8.0642972739132524e-01  8.4494430141176247e-01  8.8359307819266741e-01  9.2234098204822201e-01  9.6115425502334362e-01  1.0000000000000000e+00  -2.0000000000000000e+00  -1.6570174077970521e+00  -1.4173217054224228e+00  -1.2371134051230341e+00  -1.0947129910680293e+00  -9.7805382653701167e-01  -8.7983148983371851e-01  -7.9533741946188008e-01  -7.2138486356720410e-01  -6.5573180557804134e-01  -5.9675050071835234e-01  -5.4322818462923883e-01  -4.9424163515435660e-01  -4.4907533902003705e-01  -4.0716646682269508e-01  -3.6806691886352416e-01  -3.3141658650367606e-01  -2.9692419840585121e-01  -2.6435344509486658e-01  -2.3351289452972393e-01  -2.0424874443588298e-01  -1.7643983501384566e-01  -1.4999465760728500e-01  -1.2485040551824295e-01  -1.0097444361936787e-01  -7.8368924621435590e-02  -5.7080729630032280e-02  -3.7228058000122355e-02  -1.9208154981786404e-02  -3.3213746827100727e-03  1.1076614365373744e-02  2.4990537169608088e-02  3.9284768753296506e-02  5.4452065231854363e-02  7.0569541071004632e-02  8.7705227419919166e-02  1.0591415212131637e-01  1.2524579665191896e-01  1.4575006658347053e-01  1.6747123400341948e-01  1.9044226134706710e-01  2.1468105589056397e-01  2.4018750315549037e-01  2.6694188842767647e-01  2.9490525733643097e-01  3.2402163185587951e-01  3.5422162170974669e-01  3.8542674026015644e-01  4.1755369552853089e-01  4.5051809918459379e-01  4.8423730653031283e-01  5.1863234303871364e-01  5.5362902736473196e-01  5.8915846692270868e-01  6.2515710744451025e-01  6.6156649182311267e-01  6.9833284708967358e-01  7.3540658327824704e-01  7.7274175910103360e-01  8.1029554777345247e-01  8.4802772116797920e-01  8.8590016033346008e-01  9.2387639390414589e-01  9.6192116189673560e-01  1.0000000000000000e+00  -2.0000000000000000e+00  -1.6369099412249744e+00  -1.3880935984609359e+00  -1.2034073218619077e+00  -1.0587782861250652e+00  -9.4108894214565764e-01  -8.4252080258897710e-01  -7.5809296053103925e-01  -6.8446539083343316e-01  -6.1930574167866781e-01  -5.6093114788791976e-01  -5.0809438190688272e-01  -4.5985037899899311e-01  -4.1546978261167650e-01  -3.7438117502686175e-01  -3.3613145652896315e-01  -3.0035808641629896e-01  -2.6676931670627702e-01  -2.3512998032955298e-01  -2.0525127935128165e-01  -1.7698359901867514e-01  -1.5021180573350348e-01  -1.2485291081915577e-01  -1.0085659334549479e-01  -7.8210177260842714e-02  -5.6951476017923268e-02  -3.7195244336378733e-02  -1.9268834328862457e-02  -3.5498475903008356e-03  1.0599948187889181e-02  2.4229424376447956e-02  3.8214190903658768e-02  5.2983159546123884e-02  6.8597289087687252e-02  8.5118032943653110e-02  1.0260224155856754e-01  1.2109985104823776e-01  1.4065538779603984e-01  1.6130917172704726e-01  1.8309496835969929e-01  2.0603685085667583e-01  2.3014655279367988e-01  2.5542150344060671e-01  2.8184386589080601e-01  3.0938082331153133e-01  3.3798608420433002e-01  3.6760234159917077e-01  3.9816427145380429e-01  4.2960162047800848e-01  4.6184201205340297e-01  4.9481324127501825e-01  5.2844497503509547e-01  5.6266988148242425e-01  5.9742427465358294e-01  6.3264838229484843e-01  6.6828634172145673e-01  7.0428601261968948e-01  7.4059867573562532e-01  7.7717866734507690e-01  8.1398298343347086e-01  8.5097087515324210e-01  8.8810344806904773e-01  9.2534327133816541e-01  9.6265399865945334e-01  1.0000000000000000e+00  -2.0000000000000000e+00  -1.6181532483806320e+00  -1.3611899844562916e+00  -1.1726613426122015e+00  -1.0262120436717834e+00  -9.0775278094818290e-01  -8.0900133131166474e-01  -7.2473622908986657e-01  -6.5148461747040221e-01  -5.8683727145096376e-01  -5.2906528546395337e-01  -4.7689323201954154e-01  -4.2935861507692341e-01  -3.8572140419235523e-01  -3.4540391738647702e-01  -3.0794979968383224e-01  -2.7299543016069183e-01  -2.4024968326047863e-01  -2.0947949939018609e-01  -1.8049966504633028e-01  -1.5316582980583071e-01  -1.2737027211567753e-01  -1.0304046338580783e-01  -8.0141535478270617e-02  -5.8686867989400884e-02  -3.8771326965634359e-02  -2.0685264691849357e-02  -4.9191924517705604e-03  9.1286939095269210e-03  2.2539090149931582e-02  3.6236882673317157e-02 