<?xml version="1.0"?>
<VTKFile type="UnstructuredGrid"  version="0.1"  >
<UnstructuredGrid>
<Piece  NumberOfPoints="4225" NumberOfCells="8192">
<Points>
<DataArray  type="Float64"  NumberOfComponents="3"  format="ascii">0 0 0  0.015625 0 0  0.03125 0 0  0.046875 0 0  0.0625 0 0  0.078125 0 0  0.09375 0 0  0.109375 0 0  0.125 0 0  0.140625 0 0  0.15625 0 0  0.171875 0 0  0.1875 0 0  0.203125 0 0  0.21875 0 0  0.234375 0 0  0.25 0 0  0.265625 0 0  0.28125 0 0  0.296875 0 0  0.3125 0 0  0.328125 0 0  0.34375 0 0  0.359375 0 0  0.375 0 0  0.390625 0 0  0.40625 0 0  0.421875 0 0  0.4375 0 0  0.453125 0 0  0.46875 0 0  0.484375 0 0  0.5 0 0  0.515625 0 0  0.53125 0 0  0.546875 0 0  0.5625 0 0  0.578125 0 0  0.59375 0 0  0.609375 0 0  0.625 0 0  0.640625 0 0  0.65625 0 0  0.671875 0 0  0.6875 0 0  0.703125 0 0  0.71875 0 0  0.734375 0 0  0.75 0 0  0.765625 0 0  0.78125 0 0  0.796875 0 0  0.8125 0 0  0.828125 0 0  0.84375 0 0  0.859375 0 0  0.875 0 0  0.890625 0 0  0.90625 0 0  0.921875 0 0  0.9375 0 0  0.953125 0 0  0.96875 0 0  0.984375 0 0  1 0 0  0 0.015625 0  0.015625 0.015625 0  0.03125 0.015625 0  0.046875 0.015625 0  0.0625 0.015625 0  0.078125 0.015625 0  0.09375 0.015625 0  0.109375 0.015625 0  0.125 0.015625 0  0.140625 0.015625 0  0.15625 0.015625 0  0.171875 0.015625 0  0.1875 0.015625 0  0.203125 0.015625 0  0.21875 0.015625 0  0.234375 0.015625 0  0.25 0.015625 0  0.265625 0.015625 0  0.28125 0.015625 0  0.296875 0.015625 0  0.3125 0.015625 0  0.328125 0.015625 0  0.34375 0.015625 0  0.359375 0.015625 0  0.375 0.015625 0  0.390625 0.015625 0  0.40625 0.015625 0  0.421875 0.015625 0  0.4375 0.015625 0  0.453125 0.015625 0  0.46875 0.015625 0  0.484375 0.015625 0  0.5 0.015625 0  0.515625 0.015625 0  0.53125 0.015625 0  0.546875 0.015625 0  0.5625 0.015625 0  0.578125 0.015625 0  0.59375 0.015625 0  0.609375 0.015625 0  0.625 0.015625 0  0.640625 0.015625 0  0.65625 0.015625 0  0.671875 0.015625 0  0.6875 0.015625 0  0.703125 0.015625 0  0.71875 0.015625 0  0.734375 0.015625 0  0.75 0.015625 0  0.765625 0.015625 0  0.78125 0.015625 0  0.796875 0.015625 0  0.8125 0.015625 0  0.828125 0.015625 0  0.84375 0.015625 0  0.859375 0.015625 0  0.875 0.015625 0  0.890625 0.015625 0  0.90625 0.015625 0  0.921875 0.015625 0  0.9375 0.015625 0  0.953125 0.015625 0  0.96875 0.015625 0  0.984375 0.015625 0  1 0.015625 0  0 0.03125 0  0.015625 0.03125 0  0.03125 0.03125 0  0.046875 0.03125 0  0.0625 0.03125 0  0.078125 0.03125 0  0.09375 0.03125 0  0.109375 0.03125 0  0.125 0.03125 0  0.140625 0.03125 0  0.15625 0.03125 0  0.171875 0.03125 0  0.1875 0.03125 0  0.203125 0.03125 0  0.21875 0.03125 0  0.234375 0.03125 0  0.25 0.03125 0  0.265625 0.03125 0  0.28125 0.03125 0  0.296875 0.03125 0  0.3125 0.03125 0  0.328125 0.03125 0  0.34375 0.03125 0  0.359375 0.03125 0  0.375 0.03125 0  0.390625 0.03125 0  0.40625 0.03125 0  0.421875 0.03125 0  0.4375 0.03125 0  0.453125 0.03125 0  0.46875 0.03125 0  0.484375 0.03125 0  0.5 0.03125 0  0.515625 0.03125 0  0.53125 0.03125 0  0.546875 0.03125 0  0.5625 0.03125 0  0.578125 0.03125 0  0.59375 0.03125 0  0.609375 0.03125 0  0.625 0.03125 0  0.640625 0.03125 0  0.65625 0.03125 0  0.671875 0.03125 0  0.6875 0.03125 0  0.703125 0.03125 0  0.71875 0.03125 0  0.734375 0.03125 0  0.75 0.03125 0  0.765625 0.03125 0  0.78125 0.03125 0  0.796875 0.03125 0  0.8125 0.03125 0  0.828125 0.03125 0  0.84375 0.03125 0  0.859375 0.03125 0  0.875 0.03125 0  0.890625 0.03125 0  0.90625 0.03125 0  0.921875 0.03125 0  0.9375 0.03125 0  0.953125 0.03125 0  0.96875 0.03125 0  0.984375 0.03125 0  1 0.03125 0  0 0.046875 0  0.015625 0.046875 0  0.03125 0.046875 0  0.046875 0.046875 0  0.0625 0.046875 0  0.078125 0.046875 0  0.09375 0.046875 0  0.109375 0.046875 0  0.125 0.046875 0  0.140625 0.046875 0  0.15625 0.046875 0  0.171875 0.046875 0  0.1875 0.046875 0  0.203125 0.046875 0  0.21875 0.046875 0  0.234375 0.046875 0  0.25 0.046875 0  0.265625 0.046875 0  0.28125 0.046875 0  0.296875 0.046875 0  0.3125 0.046875 0  0.328125 0.046875 0  0.34375 0.046875 0  0.359375 0.046875 0  0.375 0.046875 0  0.390625 0.046875 0  0.40625 0.046875 0  0.421875 0.046875 0  0.4375 0.046875 0  0.453125 0.046875 0  0.46875 0.046875 0  0.484375 0.046875 0  0.5 0.046875 0  0.515625 0.046875 0  0.53125 0.046875 0  0.546875 0.046875 0  0.5625 0.046875 0  0.578125 0.046875 0  0.59375 0.046875 0  0.609375 0.046875 0  0.625 0.046875 0  0.640625 0.046875 0  0.65625 0.046875 0  0.671875 0.046875 0  0.6875 0.046875 0  0.703125 0.046875 0  0.71875 0.046875 0  0.734375 0.046875 0  0.75 0.046875 0  0.765625 0.046875 0  0.78125 0.046875 0  0.796875 0.046875 0  0.8125 0.046875 0  0.828125 0.046875 0  0.84375 0.046875 0  0.859375 0.046875 0  0.875 0.046875 0  0.890625 0.046875 0  0.90625 0.046875 0  0.921875 0.046875 0  0.9375 0.046875 0  0.953125 0.046875 0  0.96875 0.046875 0  0.984375 0.046875 0  1 0.046875 0  0 0.0625 0  0.015625 0.0625 0  0.03125 0.0625 0  0.046875 0.0625 0  0.0625 0.0625 0  0.078125 0.0625 0  0.09375 0.0625 0  0.109375 0.0625 0  0.125 0.0625 0  0.140625 0.0625 0  0.15625 0.0625 0  0.171875 0.0625 0  0.1875 0.0625 0  0.203125 0.0625 0  0.21875 0.0625 0  0.234375 0.0625 0  0.25 0.0625 0  0.265625 0.0625 0  0.28125 0.0625 0  0.296875 0.0625 0  0.3125 0.0625 0  0.328125 0.0625 0  0.34375 0.0625 0  0.359375 0.0625 0  0.375 0.0625 0  0.390625 0.0625 0  0.40625 0.0625 0  0.421875 0.0625 0  0.4375 0.0625 0  0.453125 0.0625 0  0.46875 0.0625 0  0.484375 0.0625 0  0.5 0.0625 0  0.515625 0.0625 0  0.53125 0.0625 0  0.546875 0.0625 0  0.5625 0.0625 0  0.578125 0.0625 0  0.59375 0.0625 0  0.609375 0.0625 0  0.625 0.0625 0  0.640625 0.0625 0  0.65625 0.0625 0  0.671875 0.0625 0  0.6875 0.0625 0  0.703125 0.0625 0  0.71875 0.0625 0  0.734375 0.0625 0  0.75 0.0625 0  0.765625 0.0625 0  0.78125 0.0625 0  0.796875 0.0625 0  0.8125 0.0625 0  0.828125 0.0625 0  0.84375 0.0625 0  0.859375 0.0625 0  0.875 0.0625 0  0.890625 0.0625 0  0.90625 0.0625 0  0.921875 0.0625 0  0.9375 0.0625 0  0.953125 0.0625 0  0.96875 0.0625 0  0.984375 0.0625 0  1 0.0625 0  0 0.078125 0  0.015625 0.078125 0  0.03125 0.078125 0  0.046875 0.078125 0  0.0625 0.078125 0  0.078125 0.078125 0  0.09375 0.078125 0  0.109375 0.078125 0  0.125 0.078125 0  0.140625 0.078125 0  0.15625 0.078125 0  0.171875 0.078125 0  0.1875 0.078125 0  0.203125 0.078125 0  0.21875 0.078125 0  0.234375 0.078125 0  0.25 0.078125 0  0.265625 0.078125 0  0.28125 0.078125 0  0.296875 0.078125 0  0.3125 0.078125 0  0.328125 0.078125 0  0.34375 0.078125 0  0.359375 0.078125 0  0.375 0.078125 0  0.390625 0.078125 0  0.40625 0.078125 0  0.421875 0.078125 0  0.4375 0.078125 0  0.453125 0.078125 0  0.46875 0.078125 0  0.484375 0.078125 0  0.5 0.078125 0  0.515625 0.078125 0  0.53125 0.078125 0  0.546875 0.078125 0  0.5625 0.078125 0  0.578125 0.078125 0  0.59375 0.078125 0  0.609375 0.078125 0  0.625 0.078125 0  0.640625 0.078125 0  0.65625 0.078125 0  0.671875 0.078125 0  0.6875 0.078125 0  0.703125 0.078125 0  0.71875 0.078125 0  0.734375 0.078125 0  0.75 0.078125 0  0.765625 0.078125 0  0.78125 0.078125 0  0.796875 0.078125 0  0.8125 0.078125 0  0.828125 0.078125 0  0.84375 0.078125 0  0.859375 0.078125 0  0.875 0.078125 0  0.890625 0.078125 0  0.90625 0.078125 0  0.921875 0.078125 0  0.9375 0.078125 0  0.953125 0.078125 0  0.96875 0.078125 0  0.984375 0.078125 0  1 0.078125 0  0 0.09375 0  0.015625 0.09375 0  0.03125 0.09375 0  0.046875 0.09375 0  0.0625 0.09375 0  0.078125 0.09375 0  0.09375 0.09375 0  0.109375 0.09375 0  0.125 0.09375 0  0.140625 0.09375 0  0.15625 0.09375 0  0.171875 0.09375 0  0.1875 0.09375 0  0.203125 0.09375 0  0.21875 0.09375 0  0.234375 0.09375 0  0.25 0.09375 0  0.265625 0.09375 0  0.28125 0.09375 0  0.296875 0.09375 0  0.3125 0.09375 0  0.328125 0.09375 0  0.34375 0.09375 0  0.359375 0.09375 0  0.375 0.09375 0  0.390625 0.09375 0  0.40625 0.09375 0  0.421875 0.09375 0  0.4375 0.09375 0  0.453125 0.09375 0  0.46875 0.09375 0  0.484375 0.09375 0  0.5 0.09375 0  0.515625 0.09375 0  0.53125 0.09375 0  0.546875 0.09375 0  0.5625 0.09375 0  0.578125 0.09375 0  0.59375 0.09375 0  0.609375 0.09375 0  0.625 0.09375 0  0.640625 0.09375 0  0.65625 0.09375 0  0.671875 0.09375 0  0.6875 0.09375 0  0.703125 0.09375 0  0.71875 0.09375 0  0.734375 0.09375 0  0.75 0.09375 0  0.765625 0.09375 0  0.78125 0.09375 0  0.796875 0.09375 0  0.8125 0.09375 0  0.828125 0.09375 0  0.84375 0.09375 0  0.859375 0.09375 0  0.875 0.09375 0  0.890625 0.09375 0  0.90625 0.09375 0  0.921875 0.09375 0  0.9375 0.09375 0  0.953125 0.09375 0  0.96875 0.09375 0  0.984375 0.09375 0  1 0.09375 0  0 0.109375 0  0.015625 0.109375 0  0.03125 0.109375 0  0.046875 0.109375 0  0.0625 0.109375 0  0.078125 0.109375 0  0.09375 0.109375 0  0.109375 0.109375 0  0.125 0.109375 0  0.140625 0.109375 0  0.15625 0.109375 0  0.171875 0.109375 0  0.1875 0.109375 0  0.203125 0.109375 0  0.21875 0.109375 0  0.234375 0.109375 0  0.25 0.109375 0  0.265625 0.109375 0  0.28125 0.109375 0  0.296875 0.109375 0  0.3125 0.109375 0  0.328125 0.109375 0  0.34375 0.109375 0  0.359375 0.109375 0  0.375 0.109375 0  0.390625 0.109375 0  0.40625 0.109375 0  0.421875 0.109375 0  0.4375 0.109375 0  0.453125 0.109375 0  0.46875 0.109375 0  0.484375 0.109375 0  0.5 0.109375 0  0.515625 0.109375 0  0.53125 0.109375 0  0.546875 0.109375 0  0.5625 0.109375 0  0.578125 0.109375 0  0.59375 0.109375 0  0.609375 0.109375 0  0.625 0.109375 0  0.640625 0.109375 0  0.65625 0.109375 0  0.671875 0.109375 0  0.6875 0.109375 0  0.703125 0.109375 0  0.71875 0.109375 0  0.734375 0.109375 0  0.75 0.109375 0  0.765625 0.109375 0  0.78125 0.109375 0  0.796875 0.109375 0  0.8125 0.109375 0  0.828125 0.109375 0  0.84375 0.109375 0  0.859375 0.109375 0  0.875 0.109375 0  0.890625 0.109375 0  0.90625 0.109375 0  0.921875 0.109375 0  0.9375 0.109375 0  0.953125 0.109375 0  0.96875 0.109375 0  0.984375 0.109375 0  1 0.109375 0  0 0.125 0  0.015625 0.125 0  0.03125 0.125 0  0.046875 0.125 0  0.0625 0.125 0  0.078125 0.125 0  0.09375 0.125 0  0.109375 0.125 0  0.125 0.12
[...]
<PointData  Scalars="f_6"> 
<DataArray  type="Float64"  Name="f_6"  format="ascii">-2.0000000000000000e+00  -1.9531250000000000e+00  -1.9062500000000000e+00  -1.8593750000000000e+00  -1.8125000000000000e+00  -1.7656250000000000e+00  -1.7187500000000000e+00  -1.6718750000000000e+00  -1.6250000000000000e+00  -1.5781250000000000e+00  -1.5312500000000000e+00  -1.4843750000000000e+00  -1.4375000000000000e+00  -1.3906250000000000e+00  -1.3437500000000000e+00  -1.2968750000000000e+00  -1.2500000000000000e+00  -1.2031250000000000e+00  -1.1562500000000000e+00  -1.1093750000000000e+00  -1.0625000000000000e+00  -1.0156250000000000e+00  -9.6874999999999989e-01  -9.2187500000000000e-01  -8.7500000000000000e-01  -8.2812500000000000e-01  -7.8125000000000000e-01  -7.3437500000000000e-01  -6.8750000000000000e-01  -6.4062500000000000e-01  -5.9375000000000000e-01  -5.4687500000000000e-01  -5.0000000000000000e-01  -4.5312500000000000e-01  -4.0625000000000000e-01  -3.5937500000000000e-01  -3.1250000000000000e-01  -2.6562500000000000e-01  -2.1875000000000000e-01  -1.7187500000000000e-01  -1.2500000000000000e-01  -7.8125000000000000e-02  -3.1250000000000000e-02  1.5625000000000000e-02  6.2500000000000000e-02  1.0937500000000000e-01  1.5625000000000000e-01  2.0312500000000000e-01  2.5000000000000000e-01  2.9687500000000000e-01  3.4375000000000000e-01  3.9062500000000000e-01  4.3750000000000000e-01  4.8437500000000000e-01  5.3125000000000000e-01  5.7812500000000000e-01  6.2500000000000000e-01  6.7187500000000000e-01  7.1875000000000000e-01  7.6562500000000000e-01  8.1250000000000000e-01  8.5937500000000000e-01  9.0625000000000000e-01  9.5312500000000000e-01  1.0000000000000000e+00  -2.0000000000000000e+00  -1.9075721020023604e+00  -1.8224196899278116e+00  -1.7432240745928276e+00  -1.6691127515689694e+00  -1.5994258783742969e+00  -1.5336266866706498e+00  -1.4712606104731947e+00  -1.4119336374728853e+00  -1.3552993793843513e+00  -1.3010505829420955e+00  -1.2489131226684325e+00  -1.1986414898262876e+00  -1.1500152439415166e+00  -1.1028361209177877e+00  -1.0569256142738337e+00  -1.0121229161612360e+00  -9.6828314717726149e-01  -9.2527582866760094e-01  -8.8298355911839899e-01  -8.4130084455223220e-01  -8.0013300749904592e-01  -7.5939509389862614e-01  -7.1901077444014039e-01  -6.7891141009385914e-01  -6.3903552215034909e-01  -5.9932855161489307e-01  -5.5974268076674272e-01  -5.2023661873008986e-01  -4.8077520286462144e-01  -4.4132943189849932e-01  -4.0187769797424544e-01  -3.6240417735347630e-01  -3.2291283233684870e-01  -2.8338995411453571e-01  -2.4381721783717891e-01  -2.0424217451350404e-01  -1.6472278297919049e-01  -1.2536000651383034e-01  -8.6326517620562607e-02  -4.8509112453320569e-02  -1.3451982254004732e-02  2.0710819487875311e-02  5.6381133210565322e-02  9.5166571566850808e-02  1.3707705365726411e-01  1.8041709420698818e-01  2.2453090388915076e-01  2.6912143684046141e-01  3.1403393918732647e-01  3.5917818303416271e-01  4.0449681680129645e-01  4.4995090244232500e-01  4.9551261066663527e-01  5.4116121291078556e-01  5.8688072873614605e-01  6.3265846653124180e-01  6.7848407566282687e-01  7.2434890599376012e-01  7.7024555954838070e-01  8.1616756612014540e-01  8.6210914070262179e-01  9.0806499567431831e-01  9.5403018961059849e-01  1.0000000000000000e+00  -2.0000000000000000e+00  -1.8653142348644920e+00  -1.7471096964657682e+00  -1.6421530937715982e+00  -1.5480787969081207e+00  -1.4630762389141330e+00  -1.3857123091246892e+00  -1.3148251548462699e+00  -1.2494564452604959e+00  -1.1888055636992256e+00  -1.1321971066646506e+00  -1.0790569303574860e+00  -1.0288939615636747e+00  -9.8128605765976451e-01  -9.3586880888472057e-01  -8.9232654024308455e-01  -8.5038499960391456e-01  -8.0980537021929355e-01  -7.7037934857348278e-01  -7.3192509063778799e-01  -6.9428384633710283e-01  -6.5731707419833119e-01  -6.2090380495524922e-01  -5.8493813875393019e-01  -5.4932713432182911e-01  -5.1398964635439770e-01  -4.7885573171813678e-01  -4.4386616084435682e-01  -4.0897198172986510e-01  -3.7413351083494134e-01  -3.3931960804973360e-01  -3.0451147982249682e-01  -2.6968936152949197e-01  -2.3487351848178656e-01  -2.0005929482909765e-01  -1.6518709636865619e-01  -1.3027773862697464e-01  -9.5517900794785782e-02  -6.1534472546514736e-02  -2.9599000381910212e-02  -1.6950488486655149e-04  2.7981856847291865e-02  5.6948341477989675e-02  8.8886705312536382e-02  1.2470809939957381e-01  1.6334954885521771e-01  2.0381041928153776e-01  2.4546008450915355e-01  2.8792090428536860e-01  3.3096113687468159e-01  3.7443197614802814e-01  4.1823318172869800e-01  4.6229418230136832e-01  5.0656332731343134e-01  5.5100151224036098e-01  5.9557823550255684e-01  6.4026906172599485e-01  6.8505393012630578e-01  7.2991598876383301e-01  7.7484076607961683e-01  8.1981556422957902e-01  8.6482900101602334e-01  9.0987065238405274e-01  9.5493076276807543e-01  1.0000000000000000e+00  -2.0000000000000000e+00  -1.8257365417394129e+00  -1.6789686572770293e+00  -1.5535237690457524e+00  -1.4449212401425819e+00  -1.3498196582207080e+00  -1.2656679403945101e+00  -1.1904799708832234e+00  -1.1226843709247603e+00  -1.0610211500750508e+00  -1.0044685676620346e+00  -9.5219009457486570e-01  -9.0349514577032031e-01  -8.5780949332206524e-01  -8.1465263813669964e-01  -7.7362028112061054e-01  -7.3437059679444250e-01  -6.9661339285436508e-01  -6.6010150583995020e-01  -6.2462396623583416e-01  -5.9000056235107456e-01  -5.5607742077930833e-01  -5.2272313735465248e-01  -4.8982506601366266e-01  -4.5728605093794700e-01  -4.2502304262215707e-01  -3.9296646480993092e-01  -3.6105952030882815e-01  -3.2925782756930372e-01  -2.9752803531006689e-01  -2.6584340430548986e-01  -2.3419934809373216e-01  -2.0257520477605873e-01  -1.7092709305181852e-01  -1.3920796884915709e-01  -1.0743539320770594e-01  -7.5776567070894613e-02  -4.4609459724841316e-02  -1.6561595258636805e-02  8.9689379267042461e-03  3.3698139091846643e-02  5.9032370438196959e-02  8.6615144339671268e-02  1.1750924716201666e-01  1.5142957186369033e-01  1.8780262308249487e-01  2.2601494955479162e-01  2.6557811058055714e-01  3.0614095891717785e-01  3.4745772787800361e-01  3.8935540295457011e-01  4.3170975166409931e-01  4.7442931772101904e-01  5.1744500404536098e-01  5.6070327323467006e-01  6.0416163930772560e-01  6.4778561474387497e-01  6.9154659435256827e-01  7.3542035285564933e-01  7.7938595177667502e-01  8.2342492370253095e-01  8.6752064674784013e-01  9.1165785007779399e-01  9.5582220907765025e-01  1.0000000000000000e+00  -2.0000000000000000e+00  -1.7885246358916873e+00  -1.6170340842981119e+00  -1.4753322494131649e+00  -1.3562703704362393e+00  -1.2547100063711631e+00  -1.1668742219520161e+00  -1.0899316448420364e+00  -1.0217228692110152e+00  -9.6057594780234701e-01  -9.0517905943579702e-01  -8.5449078518422483e-01  -8.0767569987500620e-01  -7.6405736670974689e-01  -7.2308352400996712e-01  -6.8429995790820675e-01  -6.4733065772824738e-01  -6.1186258686348449e-01  -5.7763391426212762e-01  -5.4442491842101381e-01  -5.1205100725120678e-01  -4.8035732941544029e-01  -4.4921423001250033e-01  -4.1851258519739454e-01  -3.8815893345953834e-01  -3.5807461853309647e-01  -3.2819537440904217e-01  -2.9847016703095541e-01  -2.6885985383199307e-01  -2.3933808751418784e-01  -2.0986732035538977e-01  -1.8040356776913249e-01  -1.5091150302153733e-01  -1.2139263482656275e-01  -9.1890558628764010e-02  -6.2578135020299686e-02  -3.3978824478084667e-02  -8.1233830362419761e-03  1.4971258704605856e-02  3.7293563411972472e-02  6.0464083585342325e-02  8.5451177713619361e-02  1.1297061828048159e-01  1.4310556713216877e-01  1.7569831781067588e-01  2.1041642205628003e-01  2.4686864527457658e-01  2.8469644934110566e-01  3.2360709292478174e-01  3.6337341276558471e-01  4.0382215612814942e-01  4.4482110425210974e-01  4.8626833287324778e-01  5.2808409791232336e-01  5.7020493734523248e-01  6.1257943374980028e-01  6.5516516358921095e-01  6.9792647968444310e-01  7.4083287652952079e-01  7.8385776446890287e-01  8.2697753205602964e-01  8.7017081219501202e-01  9.1341789210163304e-01  9.5670022346473160e-01  1.0000000000000000e+00  -2.0000000000000000e+00  -1.7534891836436899e+00  -1.5605786643470525e+00  -1.4060188389548127e+00  -1.2795467021287166e+00  -1.1740675665141427e+00  -1.0845567217084420e+00  -1.0073772859260557e+00  -9.3984517056325478e-01  -8.7994466412289718e-01  -8.2613817173734905e-01  -7.7723623969007483e-01  -7.3230705111706940e-01  -6.9061230399218221e-01  -6.5156105766893135e-01  -6.1467602522923370e-01  -5.7956861530263293e-01  -5.4592021264071555e-01  -5.1346799393348563e-01  -4.8199416685529051e-01  -4.5131795152912618e-01  -4.2128977297388004e-01  -3.9178671468766951e-01  -3.6270727209362952e-01  -3.3396292311256115e-01  -3.0547946103564316e-01  -2.7719616316326767e-01  -2.4906455238155331e-01  -2.2103118687914183e-01  -1.9303911707431468e-01  -1.6504307708091234e-01  -1.3702938637037462e-01  -1.0902265233807380e-01  -8.1126281915779475e-02  -5.3597523195527845e-02  -2.7014443477054409e-02  -2.9171307297197959e-03  1.8715886854102699e-02  3.9323553656642342e-02  6.0725309768482935e-02  8.4075799921055780e-02  1.0933763855045653e-01  1.3671058393646701e-01  1.6624408527550083e-01  1.9784171019056435e-01  2.3129610205737283e-01  2.6634676014612907e-01  3.0273194858450719e-01  3.4021755067525866e-01  3.7860667413140414e-01  4.1773870454033324e-01  4.5748417634294214e-01  4.9773881160753902e-01  5.3841811738545209e-01  5.7945294448413620e-01  6.2078599475703145e-01  6.6236912617872556e-01  7.0416128426647240e-01  7.4612690910908774e-01  7.8823469751338604e-01  8.3045662785767260e-01  8.7276717787454583e-01  9.1514268266899423e-01  9.5756079267964345e-01  1.0000000000000000e+00  -2.0000000000000000e+00  -1.7205002948470784e+00  -1.5090242341278086e+00  -1.3443406617103038e+00  -1.2127428485721041e+00  -1.1051119227828585e+00  -1.0152135961535900e+00  -9.3867928311380489e-01  -8.7237883157805252e-01  -8.1402390287373017e-01  -7.6191093437586999e-01  -7.1475074466005184e-01  -6.7155320561864784e-01  -6.3154768814007922e-01  -5.9412721998808327e-01  -5.5880864737183811e-01  -5.2520376437219363e-01  -4.9299805263195101e-01  -4.6193477857818394e-01  -4.3180301567356238e-01  -4.0242886020964991e-01  -3.7366953517329315e-01  -3.4540954488364312e-01  -3.1755612505523578e-01  -2.9002143206521985e-01  -2.6273030489136906e-01  -2.3560894102914773e-01  -2.0858250246179866e-01  -1.8158838344647751e-01  -1.5458952702328971e-01  -1.2758703491861947e-01  -1.0064631346944908e-01  -7.3930110606134261e-02  -4.7740544129594525e-02  -2.2727815067864400e-02  -1.4942972906394498e-05  2.0548568629639066e-02  4.0179864276480480e-02  6.0369152813378527e-02  8.2208322084261154e-02  1.0577616777994138e-01  1.3111299263068399e-01  1.5828999363942911e-01  1.8731847984280325e-01  2.1812833561870801e-01  2.5057951583651783e-01  2.8449034466805984e-01  3.1966703417553510e-01  3.5592448706034158e-01  3.9309702854444034e-01  4.3104181155883708e-01  4.6963808497178655e-01  5.0878461982851397e-01  5.4839661553781005e-01  5.8840272844882890e-01  6.2874247461546384e-01  6.6936406210218791e-01  7.1022262209363329e-01  7.5127877812697119e-01  7.9249748861788127e-01  8.3384710398672834e-01  8.7529858877650402e-01  9.1682486802015450e-01  9.5840026458484806e-01  1.0000000000000000e+00  -2.0000000000000000e+00  -1.6894589981911030e+00  -1.4618930700939328e+00  -1.2892872480880539e+00  -1.1542729015848829e+00  -1.0457112909802342e+00  -9.5623530524312528e-01  -8.8083398185187789e-01  -8.1601134352923477e-01  -7.5927168219796637e-01  -7.0879595818109475e-01  -6.6323321193317053e-01  -6.2156298983485703e-01  -5.8300267676929174e-01  -5.4694386017346874e-01  -5.1290784024499725e-01  -4.8051397586909977e-01  -4.4945672171762024e-01  -4.1948856763185727e-01  -3.9040708606272950e-01  -3.6204532931351829e-01  -3.3426578233542115e-01  -3.0695718282665763e-01  -2.8003343575504308e-01  -2.5339332493905575e-01  -2.2693248288811971e-01  -2.0056382852232715e-01  -1.7422473301577909e-01  -1.4789120852371132e-01  -1.2159161139355221e-01  -9.5428345632867381e-02  -6.9591409173610605e-02  -4.4410767433745668e-02  -2.0601321185725222e-02  1.0062252097610084e-03  2.0722548335142844e-02  3.9652124519049793e-02  5.9035292791736430e-02  7.9764871236130130e-02  1.0196265797524169e-01  1.2570755648376461e-01  1.5104817055290895e-01  1.7801791814776222e-01  2.0661150483757512e-01  2.3677363660494657e-01  2.6840328100193062e-01  3.0136806851405729e-01  3.3552135638923242e-01  3.7071633484613220e-01  4.0681514142717878e-01  4.4369342817878810e-01  4.8124173215685290e-01  5.1936496719692049e-01  5.5798099648844546e-01  5.9701887915790564e-01  6.3641711315380789e-01  6.7612202552092882e-01  7.1608636387890190e-01  7.5626809268728268e-01  7.9662937484443941e-01  8.3713571069485548e-01  8.7775520522458761e-01  9.1845793605027204e-01  9.5921539763959440e-01  1.0000000000000000e+00  -2.0000000000000000e+00  -1.6602832297558439e+00  -1.4187790427354778e+00  -1.2400235319728650e+00  -1.1028670621292225e+00  -9.9420898823227166e-01  -9.0564799975300514e-01  -8.3162357813128340e-01  -7.6834846291970993e-01  -7.1317540589305761e-01  -6.6421016396110133e-01  -6.2006837175106477e-01  -5.7971887628386776e-01  -5.4238040574388569e-01  -5.0745194722246678e-01  -4.7446490870335950e-01  -4.4304961919154345e-01  -4.1291133903256805e-01  -3.8381246571904615e-01  -3.5555863121021997e-01  -3.2798784722520735e-01  -3.0096433195990613e-01  -2.7437527740041995e-01  -2.4811248670859817e-01  -2.2204834976003598e-01  -1.9607638218490131e-01  -1.7014294988909653e-01  -1.4424229991584545e-01  -1.1843362517881140e-01  -9.2838693749474163e-02  -6.7658885993858095e-02  -4.3228243736193224e-02  -2.0304627084686930e-02  4.5127801440116515e-04  1.9480861746574311e-02  3.7850668211733142e-02  5.6633553081167687e-02  7.6544311135285301e-02  9.7692381364163819e-02  1.2016988209681106e-01  1.4404322962696647e-01  1.6935421494942515e-01  1.9612200356113560e-01  2.2433598475478844e-01  2.5395142496157264e-01  2.8489190305220086e-01  3.1705729199700644e-01  3.5033398802120419e-01  3.8460435450777591e-01  4.1975377413935466e-01  4.5567502757228384e-01  4.9227044827991651e-01  5.2945252031386958e-01  5.6714352406114565e-01  6.0527467854054040e-01  6.4378507332093404e-01  6.8262056294881768e-01  7.2173271521376259e-01  7.6107785389881810e-01  8.0061620737773864e-01  8.4031115872366668e-01  8.8012858537671868e-01  9.2003627331675175e-01  9.6000338992325773e-01  1.0000000000000000e+00  -2.0000000000000000e+00  -1.6329003675458920e+00  -1.3793296840806550e+00  -1.1958502812651248e+00  -1.0574966512135395e+00  -9.4930150936040814e-01  -8.6193767562274060e-01  -7.8938413608487690e-01  -7.2762785501465854e-01  -6.7391573859446230e-01  -6.2630924621149464e-01  -5.8341104305994562e-01  -5.4419248694097377e-01  -5.0788192196985671e-01  -4.7389062849885832e-01  -4.4176267502209393e-01  -4.1114026550987948e-01  -3.8173920491771013e-01  -3.5333063485794003e-01  -3.2572571999268041e-01  -2.9876144332012572e-01  -2.7229137763655831e-01  -2.4618199340227331e-01  -2.2030515187047250e-01  -1.9454168734658481e-01  -1.6882915793285042e-01  -1.4319155913998580e-01  -1.1770829332484108e-01  -9.2515153692066809e-02  -6.7815346104184257e-02  -4.3930032313691185e-02  -2.1603541581593236e-02  -1.4569626517175413e-03  1.7028203257349259e-02  3.4926470187206259e-02  5.3220263949582694e-02  7.2487108458602512e-02  9.2816017304073239e-02  1.1429046098842886e-01  1.3698125942087222e-01  1.6094126497786509e-01  1.8620345605668953e-01  2.1277989639256667e-01  2.4065900565887047e-01  2.6980417543435470e-01  3.0015561424829379e-01  3.3163520840056332e-01  3.6415294919080310e-01  3.9761332102441288e-01  4.3192057305018011e-01  4.6698245969107638e-01  5.0271251307665976e-01  5.3903114171749544e-01  5.7586590090172707e-01  6.1315123762217627e-01  6.5082793864057009e-01  6.8884243773964560e-01  7.2714608012851267e-01  7.6569440031648905e-01  8.0444644204403037e-01  8.4336413144535349e-01  8.8241170424186821e-01  9.2155518191675834e-01  9.6076188873668500e-01  1.0000000000000000e+00  -2.0000000000000000e+00  -1.6072430947654985e+00  -1.3432345355758375e+00  -1.1561758233986486e+00  -1.0173197648691543e+00  -9.0995157173543118e-01  -8.2392784643192307e-01  -7.5284842486516512e-01  -6.9252997390725912e-01  -6.4014979269094952e-01  -5.9374805074929438e-01  -5.5192867118172573e-01  -5.1367401197628559e-01  -4.7822677570245598e-01  -4.4501278710517511e-01  -4.1358928616377466e-01  -3.8360954139555287e-01  -3.5479801460930294e-01  -3.2693171822220174e-01  -2.9982186185783538e-01  -2.7328706699147909e-01  -2.4715717094289197e-01  -2.2128895765252848e-01  -1.9557346561152220e-01  -1.6995050064693673e-01  -1.4444046484917542e-01  -1.1914121256648560e-01  -9.4198788282881543e-02  -6.9817067110914802e-02  -4.6301553184603474e-02  -2.4323175664449494e-02  -4.5555096330953618e-03  1.3528198805871300e-02  3.1020998580974062e-02  4.8887346923820872e-02  6.7616808940788836e-02  8.7278599499586482e-02  1.0794218863397614e-01  1.2967218586460624e-01  1.5252342962038382e-01  1.7653711480693229e-01  2.0173844790690137e-01  2.2813512029357086e-01  2.5571596605377195e-01  2.8445065686868176e-01  3.1429117010605662e-01  3.4517497816614956e-01  3.7702927931703117e-01  4.0977540734889240e-01  4.4333273734587675e-01  4.7762172506518119e-01  5.1256600261815111e-01  5.4809363257772581e-01  5.8413770020609213e-01  6.2063643240586697e-01  6.5753300587952468e-01  6.9477516924068217e-01  7.3231476724415490e-01  7.7010722519459396e-01  8.0811102903654108e-01  8.4628722077184881e-01  8.8459891822864223e-01  9.2301086137172916e-01  9.6148898310672370e-01  1.0000000000000000e+00  -2.0000000000000000e+00  -1.5832471118971856e+00  -1.3102172705585371e+00  -1.1204952802774775e+00  -9.8164119248409465e-01  -8.7532519371016737e-01  -7.9069320214014771e-01  -7.2103774758505756e-01  -6.6205093374162549e-01  -6.1086847779608844e-01  -5.6552591290179965e-01  -5.2463794811783904e-01  -4.8720304064615738e-01  -4.5248057305483891e-01  -4.1991141919413089e-01  -3.8906516212419967e-01  -3.5960409928434484e-01  -3.3125802130612220e-01  -3.0380521135393840e-01  -2.7703689852125668e-01  -2.5074457035044639e-01  -2.2475295307735854e-01  -1.9895118444285975e-01  -1.7329303272961932e-01  -1.4779817078529656e-01  -1.2255625218216039e-01  -9.7717743379213545e-02  -7.3487595579709922e-02  -5.0163474346086673e-02  -2.8325417580258614e-02  -8.7317718231640813e-03  9.0937646419561920e-03  2.6248365321648363e-02  4.3724944422148776e-02  6.1985109986314360e-02  8.1081025390165276e-02  1.0106829196497844e-01  1.2200195186763862e-01  1.4393266421563614e-01  1.6690315838912467e-01  1.9094531672257881e-01  2.1607810047041281e-01  2.4230617082104350e-01  2.6961908139396484e-01  2.9799131588054384e-01  3.2738343114110147e-01  3.5774425484094713e-01  3.8901378256228014e-01  4.2112629170824883e-01  4.5401324391925318e-01  4.8760570060562036e-01  5.2183613975303778e-01  5.5663968576916434e-01  5.9195483493904877e-01  6.2772378591567490e-01  6.6389248323097849e-01  7.0041046609940349e-01  7.3723059441283068e-01  7.7430870418119113e-01  8.1160322813568986e-01  8.4907480437685878e-01  8.8668588652912228e-01  9.2440036223479227e-01  9.6218318231848055e-01  1.0000000000000000e+00  -2.0000000000000000e+00  -1.5608499341723923e+00  -1.2800301668631244e+00  -1.0883749326271168e+00  -9.4988236860974562e-01  -8.4474553380317097e-01  -7.6149781817787587e-01  -6.9318635926429117e-01  -6.3541560335071323e-01  -5.8530087103805373e-01  -5.4088474470303693e-01  -5.0079875910573179e-01  -4.6406015894494668e-01  -4.2994565847004551e-01  -3.9791048530220036e-01  -3.6753475687114495e-01  -3.3848662177992828e-01  -3.1049559140276634e-01  -2.8332350828767838e-01  -2.5673281696934325e-01  -2.3051005275572112e-01  -2.0451836843144761e-01  -1.7871581436082801e-01  -1.5312885063021922e-01  -1.2783815442067198e-01  -1.0297770257497964e-01  -7.8739324369911753e-02  -5.5407203955608546e-02  -3.3509589060628710e-02  -1.3913261140070741e-02  3.785382