<?xml version="1.0"?>
<VTKFile type="UnstructuredGrid"  version="0.1"  >
<UnstructuredGrid>
<Piece  NumberOfPoints="4225" NumberOfCells="8192">
<Points>
<DataArray  type="Float64"  NumberOfComponents="3"  format="ascii">0 0 0  0.015625 0 0  0.03125 0 0  0.046875 0 0  0.0625 0 0  0.078125 0 0  0.09375 0 0  0.109375 0 0  0.125 0 0  0.140625 0 0  0.15625 0 0  0.171875 0 0  0.1875 0 0  0.203125 0 0  0.21875 0 0  0.234375 0 0  0.25 0 0  0.265625 0 0  0.28125 0 0  0.296875 0 0  0.3125 0 0  0.328125 0 0  0.34375 0 0  0.359375 0 0  0.375 0 0  0.390625 0 0  0.40625 0 0  0.421875 0 0  0.4375 0 0  0.453125 0 0  0.46875 0 0  0.484375 0 0  0.5 0 0  0.515625 0 0  0.53125 0 0  0.546875 0 0  0.5625 0 0  0.578125 0 0  0.59375 0 0  0.609375 0 0  0.625 0 0  0.640625 0 0  0.65625 0 0  0.671875 0 0  0.6875 0 0  0.703125 0 0  0.71875 0 0  0.734375 0 0  0.75 0 0  0.765625 0 0  0.78125 0 0  0.796875 0 0  0.8125 0 0  0.828125 0 0  0.84375 0 0  0.859375 0 0  0.875 0 0  0.890625 0 0  0.90625 0 0  0.921875 0 0  0.9375 0 0  0.953125 0 0  0.96875 0 0  0.984375 0 0  1 0 0  0 0.015625 0  0.015625 0.015625 0  0.03125 0.015625 0  0.046875 0.015625 0  0.0625 0.015625 0  0.078125 0.015625 0  0.09375 0.015625 0  0.109375 0.015625 0  0.125 0.015625 0  0.140625 0.015625 0  0.15625 0.015625 0  0.171875 0.015625 0  0.1875 0.015625 0  0.203125 0.015625 0  0.21875 0.015625 0  0.234375 0.015625 0  0.25 0.015625 0  0.265625 0.015625 0  0.28125 0.015625 0  0.296875 0.015625 0  0.3125 0.015625 0  0.328125 0.015625 0  0.34375 0.015625 0  0.359375 0.015625 0  0.375 0.015625 0  0.390625 0.015625 0  0.40625 0.015625 0  0.421875 0.015625 0  0.4375 0.015625 0  0.453125 0.015625 0  0.46875 0.015625 0  0.484375 0.015625 0  0.5 0.015625 0  0.515625 0.015625 0  0.53125 0.015625 0  0.546875 0.015625 0  0.5625 0.015625 0  0.578125 0.015625 0  0.59375 0.015625 0  0.609375 0.015625 0  0.625 0.015625 0  0.640625 0.015625 0  0.65625 0.015625 0  0.671875 0.015625 0  0.6875 0.015625 0  0.703125 0.015625 0  0.71875 0.015625 0  0.734375 0.015625 0  0.75 0.015625 0  0.765625 0.015625 0  0.78125 0.015625 0  0.796875 0.015625 0  0.8125 0.015625 0  0.828125 0.015625 0  0.84375 0.015625 0  0.859375 0.015625 0  0.875 0.015625 0  0.890625 0.015625 0  0.90625 0.015625 0  0.921875 0.015625 0  0.9375 0.015625 0  0.953125 0.015625 0  0.96875 0.015625 0  0.984375 0.015625 0  1 0.015625 0  0 0.03125 0  0.015625 0.03125 0  0.03125 0.03125 0  0.046875 0.03125 0  0.0625 0.03125 0  0.078125 0.03125 0  0.09375 0.03125 0  0.109375 0.03125 0  0.125 0.03125 0  0.140625 0.03125 0  0.15625 0.03125 0  0.171875 0.03125 0  0.1875 0.03125 0  0.203125 0.03125 0  0.21875 0.03125 0  0.234375 0.03125 0  0.25 0.03125 0  0.265625 0.03125 0  0.28125 0.03125 0  0.296875 0.03125 0  0.3125 0.03125 0  0.328125 0.03125 0  0.34375 0.03125 0  0.359375 0.03125 0  0.375 0.03125 0  0.390625 0.03125 0  0.40625 0.03125 0  0.421875 0.03125 0  0.4375 0.03125 0  0.453125 0.03125 0  0.46875 0.03125 0  0.484375 0.03125 0  0.5 0.03125 0  0.515625 0.03125 0  0.53125 0.03125 0  0.546875 0.03125 0  0.5625 0.03125 0  0.578125 0.03125 0  0.59375 0.03125 0  0.609375 0.03125 0  0.625 0.03125 0  0.640625 0.03125 0  0.65625 0.03125 0  0.671875 0.03125 0  0.6875 0.03125 0  0.703125 0.03125 0  0.71875 0.03125 0  0.734375 0.03125 0  0.75 0.03125 0  0.765625 0.03125 0  0.78125 0.03125 0  0.796875 0.03125 0  0.8125 0.03125 0  0.828125 0.03125 0  0.84375 0.03125 0  0.859375 0.03125 0  0.875 0.03125 0  0.890625 0.03125 0  0.90625 0.03125 0  0.921875 0.03125 0  0.9375 0.03125 0  0.953125 0.03125 0  0.96875 0.03125 0  0.984375 0.03125 0  1 0.03125 0  0 0.046875 0  0.015625 0.046875 0  0.03125 0.046875 0  0.046875 0.046875 0  0.0625 0.046875 0  0.078125 0.046875 0  0.09375 0.046875 0  0.109375 0.046875 0  0.125 0.046875 0  0.140625 0.046875 0  0.15625 0.046875 0  0.171875 0.046875 0  0.1875 0.046875 0  0.203125 0.046875 0  0.21875 0.046875 0  0.234375 0.046875 0  0.25 0.046875 0  0.265625 0.046875 0  0.28125 0.046875 0  0.296875 0.046875 0  0.3125 0.046875 0  0.328125 0.046875 0  0.34375 0.046875 0  0.359375 0.046875 0  0.375 0.046875 0  0.390625 0.046875 0  0.40625 0.046875 0  0.421875 0.046875 0  0.4375 0.046875 0  0.453125 0.046875 0  0.46875 0.046875 0  0.484375 0.046875 0  0.5 0.046875 0  0.515625 0.046875 0  0.53125 0.046875 0  0.546875 0.046875 0  0.5625 0.046875 0  0.578125 0.046875 0  0.59375 0.046875 0  0.609375 0.046875 0  0.625 0.046875 0  0.640625 0.046875 0  0.65625 0.046875 0  0.671875 0.046875 0  0.6875 0.046875 0  0.703125 0.046875 0  0.71875 0.046875 0  0.734375 0.046875 0  0.75 0.046875 0  0.765625 0.046875 0  0.78125 0.046875 0  0.796875 0.046875 0  0.8125 0.046875 0  0.828125 0.046875 0  0.84375 0.046875 0  0.859375 0.046875 0  0.875 0.046875 0  0.890625 0.046875 0  0.90625 0.046875 0  0.921875 0.046875 0  0.9375 0.046875 0  0.953125 0.046875 0  0.96875 0.046875 0  0.984375 0.046875 0  1 0.046875 0  0 0.0625 0  0.015625 0.0625 0  0.03125 0.0625 0  0.046875 0.0625 0  0.0625 0.0625 0  0.078125 0.0625 0  0.09375 0.0625 0  0.109375 0.0625 0  0.125 0.0625 0  0.140625 0.0625 0  0.15625 0.0625 0  0.171875 0.0625 0  0.1875 0.0625 0  0.203125 0.0625 0  0.21875 0.0625 0  0.234375 0.0625 0  0.25 0.0625 0  0.265625 0.0625 0  0.28125 0.0625 0  0.296875 0.0625 0  0.3125 0.0625 0  0.328125 0.0625 0  0.34375 0.0625 0  0.359375 0.0625 0  0.375 0.0625 0  0.390625 0.0625 0  0.40625 0.0625 0  0.421875 0.0625 0  0.4375 0.0625 0  0.453125 0.0625 0  0.46875 0.0625 0  0.484375 0.0625 0  0.5 0.0625 0  0.515625 0.0625 0  0.53125 0.0625 0  0.546875 0.0625 0  0.5625 0.0625 0  0.578125 0.0625 0  0.59375 0.0625 0  0.609375 0.0625 0  0.625 0.0625 0  0.640625 0.0625 0  0.65625 0.0625 0  0.671875 0.0625 0  0.6875 0.0625 0  0.703125 0.0625 0  0.71875 0.0625 0  0.734375 0.0625 0  0.75 0.0625 0  0.765625 0.0625 0  0.78125 0.0625 0  0.796875 0.0625 0  0.8125 0.0625 0  0.828125 0.0625 0  0.84375 0.0625 0  0.859375 0.0625 0  0.875 0.0625 0  0.890625 0.0625 0  0.90625 0.0625 0  0.921875 0.0625 0  0.9375 0.0625 0  0.953125 0.0625 0  0.96875 0.0625 0  0.984375 0.0625 0  1 0.0625 0  0 0.078125 0  0.015625 0.078125 0  0.03125 0.078125 0  0.046875 0.078125 0  0.0625 0.078125 0  0.078125 0.078125 0  0.09375 0.078125 0  0.109375 0.078125 0  0.125 0.078125 0  0.140625 0.078125 0  0.15625 0.078125 0  0.171875 0.078125 0  0.1875 0.078125 0  0.203125 0.078125 0  0.21875 0.078125 0  0.234375 0.078125 0  0.25 0.078125 0  0.265625 0.078125 0  0.28125 0.078125 0  0.296875 0.078125 0  0.3125 0.078125 0  0.328125 0.078125 0  0.34375 0.078125 0  0.359375 0.078125 0  0.375 0.078125 0  0.390625 0.078125 0  0.40625 0.078125 0  0.421875 0.078125 0  0.4375 0.078125 0  0.453125 0.078125 0  0.46875 0.078125 0  0.484375 0.078125 0  0.5 0.078125 0  0.515625 0.078125 0  0.53125 0.078125 0  0.546875 0.078125 0  0.5625 0.078125 0  0.578125 0.078125 0  0.59375 0.078125 0  0.609375 0.078125 0  0.625 0.078125 0  0.640625 0.078125 0  0.65625 0.078125 0  0.671875 0.078125 0  0.6875 0.078125 0  0.703125 0.078125 0  0.71875 0.078125 0  0.734375 0.078125 0  0.75 0.078125 0  0.765625 0.078125 0  0.78125 0.078125 0  0.796875 0.078125 0  0.8125 0.078125 0  0.828125 0.078125 0  0.84375 0.078125 0  0.859375 0.078125 0  0.875 0.078125 0  0.890625 0.078125 0  0.90625 0.078125 0  0.921875 0.078125 0  0.9375 0.078125 0  0.953125 0.078125 0  0.96875 0.078125 0  0.984375 0.078125 0  1 0.078125 0  0 0.09375 0  0.015625 0.09375 0  0.03125 0.09375 0  0.046875 0.09375 0  0.0625 0.09375 0  0.078125 0.09375 0  0.09375 0.09375 0  0.109375 0.09375 0  0.125 0.09375 0  0.140625 0.09375 0  0.15625 0.09375 0  0.171875 0.09375 0  0.1875 0.09375 0  0.203125 0.09375 0  0.21875 0.09375 0  0.234375 0.09375 0  0.25 0.09375 0  0.265625 0.09375 0  0.28125 0.09375 0  0.296875 0.09375 0  0.3125 0.09375 0  0.328125 0.09375 0  0.34375 0.09375 0  0.359375 0.09375 0  0.375 0.09375 0  0.390625 0.09375 0  0.40625 0.09375 0  0.421875 0.09375 0  0.4375 0.09375 0  0.453125 0.09375 0  0.46875 0.09375 0  0.484375 0.09375 0  0.5 0.09375 0  0.515625 0.09375 0  0.53125 0.09375 0  0.546875 0.09375 0  0.5625 0.09375 0  0.578125 0.09375 0  0.59375 0.09375 0  0.609375 0.09375 0  0.625 0.09375 0  0.640625 0.09375 0  0.65625 0.09375 0  0.671875 0.09375 0  0.6875 0.09375 0  0.703125 0.09375 0  0.71875 0.09375 0  0.734375 0.09375 0  0.75 0.09375 0  0.765625 0.09375 0  0.78125 0.09375 0  0.796875 0.09375 0  0.8125 0.09375 0  0.828125 0.09375 0  0.84375 0.09375 0  0.859375 0.09375 0  0.875 0.09375 0  0.890625 0.09375 0  0.90625 0.09375 0  0.921875 0.09375 0  0.9375 0.09375 0  0.953125 0.09375 0  0.96875 0.09375 0  0.984375 0.09375 0  1 0.09375 0  0 0.109375 0  0.015625 0.109375 0  0.03125 0.109375 0  0.046875 0.109375 0  0.0625 0.109375 0  0.078125 0.109375 0  0.09375 0.109375 0  0.109375 0.109375 0  0.125 0.109375 0  0.140625 0.109375 0  0.15625 0.109375 0  0.171875 0.109375 0  0.1875 0.109375 0  0.203125 0.109375 0  0.21875 0.109375 0  0.234375 0.109375 0  0.25 0.109375 0  0.265625 0.109375 0  0.28125 0.109375 0  0.296875 0.109375 0  0.3125 0.109375 0  0.328125 0.109375 0  0.34375 0.109375 0  0.359375 0.109375 0  0.375 0.109375 0  0.390625 0.109375 0  0.40625 0.109375 0  0.421875 0.109375 0  0.4375 0.109375 0  0.453125 0.109375 0  0.46875 0.109375 0  0.484375 0.109375 0  0.5 0.109375 0  0.515625 0.109375 0  0.53125 0.109375 0  0.546875 0.109375 0  0.5625 0.109375 0  0.578125 0.109375 0  0.59375 0.109375 0  0.609375 0.109375 0  0.625 0.109375 0  0.640625 0.109375 0  0.65625 0.109375 0  0.671875 0.109375 0  0.6875 0.109375 0  0.703125 0.109375 0  0.71875 0.109375 0  0.734375 0.109375 0  0.75 0.109375 0  0.765625 0.109375 0  0.78125 0.109375 0  0.796875 0.109375 0  0.8125 0.109375 0  0.828125 0.109375 0  0.84375 0.109375 0  0.859375 0.109375 0  0.875 0.109375 0  0.890625 0.109375 0  0.90625 0.109375 0  0.921875 0.109375 0  0.9375 0.109375 0  0.953125 0.109375 0  0.96875 0.109375 0  0.984375 0.109375 0  1 0.109375 0  0 0.125 0  0.015625 0.125 0  0.03125 0.125 0  0.046875 0.125 0  0.0625 0.125 0  0.078125 0.125 0  0.09375 0.125 0  0.109375 0.125 0  0.125 0.12
[...]
<PointData  Scalars="f_6"> 
<DataArray  type="Float64"  Name="f_6"  format="ascii">-5.2000000000000000e+01  -5.0781250000000000e+01  -4.9562500000000000e+01  -4.8343750000000000e+01  -4.7125000000000000e+01  -4.5906250000000000e+01  -4.4687500000000000e+01  -4.3468750000000000e+01  -4.2250000000000000e+01  -4.1031250000000000e+01  -3.9812500000000000e+01  -3.8593750000000000e+01  -3.7375000000000000e+01  -3.6156249999449436e+01  -3.4937500000000000e+01  -3.3718750000000000e+01  -3.2500000000000000e+01  -3.1281250000000000e+01  -3.0062500000000000e+01  -2.8843750000000000e+01  -2.7625000000000000e+01  -2.6406250000000000e+01  -2.5187500000000000e+01  -2.3968750000000000e+01  -2.2750000000000000e+01  -2.1531250000000000e+01  -2.0312500000000000e+01  -1.9093750000000000e+01  -1.7875000000000000e+01  -1.6656250000000000e+01  -1.5437500000000000e+01  -1.4218750000000000e+01  -1.3000000000000000e+01  -1.1781250000000000e+01  -1.0562500000000000e+01  -9.3437500000000000e+00  -8.1250000000000000e+00  -6.9062500000000311e+00  -5.6875000000000000e+00  -4.4687500000000000e+00  -3.2500000000000000e+00  -2.0312500000000000e+00  -8.1250000000000000e-01  4.0625000000000000e-01  1.6250000000000000e+00  2.8437499994471125e+00  4.0625000000000000e+00  5.2812500000000000e+00  6.5000000000000000e+00  7.7187500000000000e+00  8.9375000000000000e+00  1.0156250000000000e+01  1.1375000000000000e+01  1.2593749993480742e+01  1.3812500000000000e+01  1.5031250000000000e+01  1.6250000000000000e+01  1.7468750000000000e+01  1.8687500000000000e+01  1.9906250000000000e+01  2.1125000000000000e+01  2.2343750000000000e+01  2.3562500000000000e+01  2.4781250000000000e+01  2.6000000000000000e+01  -5.2000000000000000e+01  -3.0847576221792735e+06  2.2739234279978506e+07  -4.2702779849514822e+06  5.4906646177512838e+05  2.2506043211001721e+04  -8.5910832043782505e+05  3.4290466100220475e+05  1.4170870417541583e+05  -2.3951229039346919e+05  5.1439062864171626e+05  5.0822864867604942e+04  -4.3538555009599624e+05  1.5952983869785047e+06  -1.0754341927778139e+06  -2.2035121004359788e+05  -5.2235555375775119e+04  -1.0262432251866872e+05  6.8324078084824941e+04  7.1042778804356145e+04  -1.6451084141493024e+05  1.2961225940975187e+05  -2.9535900508490781e+05  1.0918146722574678e+05  -7.0387574071573361e+05  2.0348792428281165e+06  -6.4332812283926308e+06  5.0797800369818526e+05  -1.2617615693344273e+05  1.7698723600579731e+04  2.6194227802366684e+04  -6.7434161141410819e+04  6.4737114153564376e+04  -1.2996581825604073e+05  3.8855856459555012e+04  -3.5563695765652345e+04  1.0893747986411098e+05  -2.0101363007612381e+05  5.1672490211054223e+05  -5.6719066909496498e+05  1.9538593757135171e+05  -5.4603930137877425e+04  -2.9482220136348613e+04  2.4724865801645410e+04  -2.6152472625787725e+09  -2.2774356138053064e+09  -1.9357972225455465e+09  -2.0437835968183725e+09  -1.6122002950004997e+09  -1.0494773541328427e+09  -9.0611034627166772e+08  -9.7785930695649004e+08  -1.0321008920811937e+09  -1.7213417062230787e+09  1.0304055385160484e+09  3.8684562659328446e+09  -8.6526048572367811e+08  -4.4987899617987323e+08  -5.2546995220318377e+08  -4.1755756864051485e+08  -4.1724684710425198e+08  1.8519462009501404e+08  -2.5743454097068816e+08  -6.7888623191304892e+07  2.6000000000000000e+01  -5.2000000000000000e+01  2.8922911907192209e+05  -7.8383170505608392e+08  -1.4124631884193721e+09  -1.4357176401630352e+09  -2.3441504142094889e+09  -1.3334099858141003e+09  -1.2360771944105759e+09  -4.2146080091519532e+09  -5.5903945030945854e+09  -2.7150622475591002e+09  -3.4141694855641375e+09  -3.7298692456797423e+09  -3.8733100904461060e+09  -5.4341084267265282e+09  -2.6079321111223226e+09  -3.7637853722403049e+09  2.2912036399319443e+10  -2.7236056467855949e+10  -3.9909708464809570e+10  -3.5629868680668953e+10  -3.2459506919119392e+10  -5.9945085227607086e+10  -1.0586780849582190e+11  -1.9791732988358911e+11  -3.7480936184535193e+11  -1.3002442219352842e+12  1.3100189173895036e+11  -3.7345535432994881e+09  -1.1221006511601736e+10  4.1187720935135231e+09  1.0595983659402294e+10  8.8208761629191879e+10  -3.2659446869956429e+10  6.6951871782095661e+09  1.7566850864174065e+10  2.0814370750028168e+10  -7.1000142864368095e+09  6.4767399932034950e+09  -2.5287044911413956e+10  1.2557392692555367e+10  1.6801697162557794e+11  1.5527967935840267e+10  -1.1807616361661278e+10  -1.4942504960819317e+10  2.3222123213824951e+10  -8.8761658949826088e+09  1.2264579199743958e+10  1.3760088100427074e+10  -6.4308274920460033e+09  -5.8446507958819351e+09  3.0893192905145836e+09  -6.8195432572363687e+08  1.0307805346611478e+09  -2.3386923145165558e+09  -5.0708783676632538e+09  3.0456637027856028e+08  -2.6556452505031919e+09  -1.4364445884539404e+09  -1.8381017364786077e+09  1.7829595380305023e+09  -4.5398415226591434e+09  1.7736880091550734e+09  -8.3369180365702644e+07  2.6000000000000000e+01  -5.2000000000000000e+01  -3.9358414714274008e+05  9.1721222525204197e+07  1.8817458338861375e+09  -7.1049553032031626e+07  -1.7248754157120094e+09  4.0329884393814468e+09  -4.3691552888479090e+09  6.4675961605877390e+09  -3.5341266339707985e+10  -2.9273585642097497e+09  1.5142709902175179e+09  -3.7128473175826159e+09  -3.6392380742956767e+09  1.6770499163585243e+10  -2.8916927555782742e+10  4.4698854842554611e+10  -3.7664647171021128e+09  -1.3833796615659948e+10  1.4557099498956314e+10  -3.7414065744144936e+10  8.1585358835141897e+09  -6.3127277573412453e+10  1.2452634806652907e+11  -4.2518060750369128e+11  5.2266332406726685e+11  8.9569626606463672e+11  -2.4336809518991592e+11  -1.5257703754861740e+11  3.8800304335827783e+11  1.1792025700251341e+11  -6.4448408217186180e+10  -3.0116165813280659e+10  -7.0979900497081970e+10  -3.4331516532446861e+10  -7.3717327712676865e+10  -8.4622200883963608e+10  2.3236640382605545e+10  -3.4614017425108917e+10  -7.0194159869508362e+10  3.2704062302914352e+10  1.8597549104167892e+10  -9.5450900944732635e+10  -3.3410735645932560e+10  1.1998684449627462e+10  -2.9900012537598106e+10  -1.6748741049228814e+09  -6.9156413215717812e+09  -8.1112488056576242e+09  -5.8643220438469086e+09  3.5418209953160486e+09  -6.6712963550967102e+09  -7.1107589607154732e+09  -2.1499415153642950e+09  -2.4937774299616022e+09  -4.5870968621168013e+09  -4.0833185505171213e+09  -3.6291268127293901e+09  7.5645216345338707e+09  -3.7398328309618034e+09  -2.1334473050402092e+10  -6.4182862094736230e+08  -2.2323280618932372e+08  -1.8117679585367184e+09  2.6000000000000000e+01  -5.2000000000000000e+01  1.5035769056235417e+05  -8.7110546913807821e+08  -6.9465148533668041e+09  -2.6367383041502376e+09  2.3722060075621824e+09  -8.2446921520090942e+09  -1.5381293739588280e+10  -2.4441879736475121e+10  1.8754139723613850e+10  2.3093020145400238e+10  -2.2699515375959049e+10  -8.5713518659415131e+10  7.8014393726210022e+10  -4.1825332670260551e+10  -1.2952061423113751e+09  -3.4013233283014023e+10  -5.9011315455251671e+10  6.1956159365992035e+10  -9.9265912676056030e+10  6.2003450527629326e+10  -4.0350905966197473e+11  3.2293755708681445e+11  -1.4216045624412695e+12  9.5170893899164331e+11  -1.8324872151583673e+11  -7.1574824930978882e+11  -9.1060917724248975e+11  -8.3568616273668066e+11  6.5881974710261768e+11  -1.2505357437167231e+12  -1.3887460674558194e+11  -1.9242504864349478e+08  7.5993794320834484e+09  -1.8543412274448570e+10  2.6951185071966544e+11  1.3871276763492291e+11  -4.5337023954583295e+11  -8.5532214614053848e+10  2.0096166784031853e+10  2.8597709828887477e+09  -2.0139023929471115e+10  -1.4169747284953287e+11  3.8083275394986099e+10  -3.5990843146295273e+10  -3.0376490873977364e+10  1.0326951269679363e+10  -1.0173711293399117e+10  3.2679281928794565e+09  6.4176540015643680e+08  5.5699933257428322e+09  -6.5366022195928297e+09  1.3387464302181393e+10  -2.8837262399034791e+09  5.5901844798030882e+09  3.4817510382880540e+09  1.9170514781649887e+10  -3.8356372333483028e+09  -4.1514577945982962e+09  -2.2716028544028873e+09  1.7827714817404053e+10  -2.4488883261011257e+09  1.5481282740096459e+09  4.0313820835331111e+09  2.6000000000000000e+01  -5.2000000000000000e+01  -1.4794147264628447e+05  -2.0585905411148968e+09  3.9677691016783702e+08  -1.6469090826591144e+09  -8.4968048669301758e+10  7.6185400177815735e+10  -5.1731756655772537e+10  5.0058614890917328e+10  3.1740152501482269e+10  -7.1193956293625717e+10  -2.9389790375145199e+10  1.0902648975359511e+11  -4.1867003463859421e+10  -9.1302404409421295e+10  1.7281862965644232e+11  -1.9988832303086389e+11  1.3803423275941013e+11  -3.0034856190579163e+11  1.9151118299895685e+11  -1.8897299413321536e+11  4.9136969878011798e+11  -4.7261496695855530e+11  1.1546098469764409e+12  5.8368577972997437e+11  2.1790862352126291e+11  9.6329128118182825e+11  -1.1449987461561948e+11  1.1277160665932339e+12  -1.0166171725449072e+12  1.6882792971400079e+11  -3.1101372270268372e+10  1.7167565268749664e+11  -3.3237853200954590e+10  -1.4819714037425980e+10  -4.6151938591221291e+10  8.7233496941296417e+10  -1.4045221538370766e+10  2.6087369521389145e+11  3.5715250672010185e+10  3.9550284095210564e+08  -1.1550726851624496e+11  -3.0253676256234837e+10  -1.7675962635466572e+10  -1.2529322211756712e+10  3.9211078828539177e+10  -2.4244968597774784e+10  -4.8436899979235325e+09  -5.3365624819089642e+09  -4.4125624861353092e+09  -4.0648989971273804e+09  -7.6457687426830387e+09  -1.0022234195752407e+10  -9.2440532533677597e+09  -6.0430595910821075e+09  -5.2825850591823349e+09  -6.6271615648147850e+09  -7.4742769162736807e+09  4.8805425249735203e+09  -4.7041969642435913e+09  1.2331842210036843e+09  -1.3058294286975140e+10  -8.8153235532123383e+10  9.4503789272494278e+09  2.6000000000000000e+01  -5.2000000000000000e+01  2.4027698190491286e+05  -1.9870831165117774e+09  1.6135690134837218e+07  2.9246145232126074e+09  1.8851719303111725e+10  -8.8637253424803391e+09  -3.5867388895059466e+08  -1.1263208853988846e+10  -9.8256419020258667e+10  -1.3329051312672827e+10  1.0542948026518069e+11  -1.7103487584079691e+11  -4.7327747269301056e+10  1.9057374712311603e+11  -2.2056509657418713e+11  1.3842424847504843e+11  -1.4245056410525711e+11  9.1166187127702942e+10  -1.0860938915223090e+11  1.3782875713977283e+11  -5.9633662773771106e+11  5.0815867998444025e+11  -7.1148982508129980e+11  -7.6140323587290588e+10  -4.3337182522219824e+11  -4.8645563723323322e+11  -1.0737207274422754e+12  -3.2455528211816504e+11  4.6959199872652551e+11  -1.1841093655388673e+11  -2.0712800875714233e+10  1.9952365315033089e+10  -1.2923603251120917e+11  1.3750372647389233e+11  4.9035665012072258e+10  1.8960657058631995e+11  7.4533832879018188e+10  1.0894414420189395e+11  -7.9780669499493927e+10  1.8531192911732501e+11  7.7395692256726489e+11  -1.2670706497271301e+11  1.6089657809318609e+09  9.7631954311082726e+09  -1.4086278731592518e+10  -1.1430611041670235e+10  1.2208135310926546e+10  3.9725186105016046e+09  -3.9677573884566891e+08  2.9304327777254190e+09  -9.8206536987974024e+08  6.1298474172198353e+09  1.5179424655072506e+10  1.6666159073246880e+10  1.0166162655142179e+10  2.1656005391193795e+09  -3.0220053133057203e+09  -6.8257662574052582e+09  1.1019044299368248e+09  -2.1446388119490185e+09  -9.6086791398568964e+08  6.0155329320277367e+09  -8.3806480851852283e+09  2.6000000000000000e+01  -5.2000000000000000e+01  -5.0257005599030521e+05  -2.3774158809878683e+09  -1.3868126266392348e+09  -2.6424775573303429e+10  4.3805994224284370e+10  1.1069622337627785e+10  -8.4926511945453522e+10  1.0926863419929489e+11  -1.3254569258587160e+09  1.0955233915273654e+11  -1.5188963453222101e+11  -4.7770445222632576e+10  2.1472545086972693e+11  -3.1282832143958270e+11  2.1852248694819531e+11  -2.6472990018470856e+11  2.2488635401522693e+11  -2.9671110683035498e+11  2.5808950310485431e+11  -5.2052618094177234e+11  7.5626522351321045e+11  -4.1147613887315863e+11  6.4667532826183325e+11  4.7965778718757764e+11  3.2341476906413933e+10  4.9507221614030737e+11  -4.0967351229167261e+11  1.0632577745772372e+12  -2.2510482056339844e+11  -5.6565555008689911e+10  4.6055106372655106e+10  -1.3923015426226624e+11  -9.1389231972803864e+10  4.6967392418116875e+10  -1.0449547907006573e+11  -7.9220549463675446e+10  -2.6865338070442467e+09  -3.4758494794231331e+10  -6.8567937063910591e+10  -8.6586694304772217e+10  -7.3907218525423691e+10  -6.5919305924496912e+11  1.3077876907967648e+11  3.1694203459592201e+10  -4.6610584918018408e+09  2.0766371449991386e+10  -2.5010260115309875e+10  1.6389576992332837e+11  3.7303175031183429e+11  3.6735808773224646e+11  3.2226429444360791e+11  2.3943858012769043e+11  1.5044559046847220e+11  7.7417483675829849e+10  2.8682153192337811e+10  1.4806099314541976e+09  -3.3129541341410547e+08  9.7295537638541336e+09  -3.6663343573446379e+09  -1.8266096023457727e+09  1.9272584376643896e+08  1.7182443623053198e+09  4.4714682108870721e+08  2.6000000000000000e+01  -5.2000000000000000e+01  1.1008322976624437e+06  -1.4021888805363007e+09  -3.0911949849448662e+09  3.6875443899306877e+10  -4.3935846122779526e+10  -7.4085189838219391e+10  1.0573484794632129e+11  -1.9122916188819485e+11  -6.2680326651940641e+09  -7.0127531883234772e+10  -6.8791481448630114e+09  2.6222748853695233e+11  -2.7809995709192163e+11  -8.4157208353274384e+09  1.5509183315860144e+11  -1.0017223440604729e+11  -2.2757458244720065e+11  1.6526470221778168e+11  -2.1620875988672797e+11  5.3883650664495251e+11  -4.1775397149666479e+11  4.2035308873080518e+11  -2.7742023653243665e+11  -7.4972368958395154e+11  -5.2767614435778595e+11  -1.4089280392567881e+12  7.6696370429121313e+11  -1.3638487343339001e+11  -1.2050232188772337e+11  -1.4586437804282507e+11  -1.2193418192556699e+11  -9.5394217982352875e+10  2.9327267935174004e+10  -1.3301938236845660e+11  -8.7670835089608353e+10  1.1653393454459721e+10  -6.6203696371351379e+10  -4.5385049596857391e+10  -4.9819468578243042e+10  6.1484128466949539e+10  -1.2413519755633752e+11  9.0160427760081079e+11  -5.1434605943130066e+10  -1.3559537920980289e+10  -1.3795134712885651e+10  -3.0103578295062195e+10  -3.3145884201630482e+10  -4.8427064220480413e+09  -3.6935125248184814e+11  -5.0088272351655695e+11  -4.5029445442066516e+11  -3.9530617808174463e+11  -3.1454744967788770e+11  -2.2583021765347992e+11  -1.4948671843908221e+11  -9.4359530193369080e+10  -6.0629738907511009e+10  -2.1617259951235432e+10  -1.4388225947081512e+10  -8.5372506612056351e+09  -3.0408371249829726e+09  -1.9785591185316753e+09  1.8376858401711617e+09  2.6000000000000000e+01  -5.2000000000000000e+01  2.8600502648030436e+06  1.7817588593963804e+09  -3.7777325937736940e+09  -5.7191357707131805e+10  -4.0231811348470856e+10  1.2096149926089403e+11  -8.3681748122105865e+10  1.6606027319441821e+11  -2.1786148086531837e+10  -2.8544787599032764e+10  2.0998632271398804e+10  -2.2847152661060187e+11  4.7902125877132721e+09  1.8140869156742599e+10  -2.2925382561510353e+10  -1.6171011391018042e+11  2.5246171230908710e+11  -1.1417648562372440e+11  4.4348164437408118e+11  -6.3982203131567480e+11  3.6869637038071594e+11  -3.3116270112353711e+11  -2.6373295006851093e+11  1.9826982868685127e+10  8.2164310420784283e+09  1.5702625863091987e+12  -3.0212513587464806e+10  -3.5221524494777359e+10  -1.2358231150525235e+11  -1.5436298488201688e+11  7.7656417594815353e+10  -5.3652790919702977e+08  -8.8287035106911957e+10  -1.0119980286747855e+11  1.2941290346919223e+11  -3.9944493705034875e+11  6.6317586690627612e+11  -6.3991166473970940e+10  9.7513858739749390e+10  -5.5575674993345627e+10  -2.7349608189425906e+11  -2.6652813191456458e+11  -6.8398225510295547e+10  4.0413496057476273e+10  -3.5586209105091476e+10  -2.3499087648860958e+10  9.4282144648315964e+09  -3.1398055034983727e+10  -3.1703426685771637e+10  3.5230405200212036e+11  3.0431085072870746e+11  3.3682493644620734e+11  3.1200674245878955e+11  2.3882222522732117e+11  1.5736041418321851e+11  9.2278292994820068e+10  4.9129166522605316e+10  2.4942319639725597e+10  9.1342128833465080e+09  1.3761625980536826e+09  -2.2242308318783813e+09  -6.2548447018922901e+09  -1.5660843554595232e+09  2.6000000000000000e+01  -5.2000000000000000e+01  -7.2987303933214657e+06  -1.2266865377787906e+08  -3.8328442733944159e+09  3.9618984317181076e+10  8.9437073296757477e+10  -3.9660437127455521e+10  1.5147914087436877e+11  -9.7280985228391876e+10  -5.3862165627721817e+10  2.9987621908312630e+10  -6.4076245542425415e+10  3.1487575758593075e+10  4.1127470826884781e+10  1.8082406926455105e+10  -1.1100872642759895e+11  1.7598994797425043e+11  -1.4572782982050696e+11  1.0387707036798587e+11  -2.7387257569218335e+11  4.3446163133060364e+11  8.7234158636161098e+09  -3.4653486879294031e+11  2.5387043041580910e+10  3.0896505513622711e+10  1.7208694259266772e+11  1.6171316775060516e+10  2.0497916820099023e+11  -5.5131296445123047e+11  2.1469901990092899e+11  -1.3297656262364520e+11  -2.7318121871783002e+11  -5.6533755641218805e+09  -8.8354897247369934e+10  6.8015034376390472e+10  -2.8663118568094910e+11  -1.0784747943042212e+11  -6.3811002853921799e+10  -9.6506656084190125e+11  -4.9307888851145569e+10  -7.2733854366032318e+10  1.4526022051139996e+11  -9.4887949573137573e+10  1.3697450805503271e+11  -5.2082363124056877e+10  -3.4921849423875504e+10  9.8966315136439476e+09  -2.9339933182903679e+10  -3.4803677097733810e+10  -1.3172876482420185e+10  -4.6821212358211621e+11  -3.9321065218675073e+11  -4.0322199016387415e+11  -3.8777190979589465e+11  -3.1068827354672107e+11  -2.1039646332342560e+11  -1.2697050019796094e+11  -7.2503624781304550e+10  -3.9044208828657135e+10  -2.0599103659042892e+10  -1.1289535079181805e+10  -6.7290512464379673e+09  2.0823843007192931e+09  -1.5017568274819713e+09  2.6000000000000000e+01  -5.2000000000000000e+01  1.8427621697996804e+06  -5.0786666823276386e+09  1.0897857974023371e+09  -1.3457957724996538e+10  -4.9046701109888611e+10  -2.5245580945189438e+09  -9.1980365186128204e+10  5.0678483108232033e+08  1.3737789097967472e+10  -2.6680642333259262e+10  -3.6552572358554828e+08  -4.7536296840735672e+10  -4.5595051198901196e+09  -1.6514394701561261e+11  6.6514771548618912e+10  -1.9209694972525708e+11  8.5770921039009369e+10  -5.1143044990126541e+10  -1.6769470922280731e+11  1.1744591443403839e+10  -4.0611380070622601e+11  3.6114868211146049e+10  -2.6789535889227417e+11  -1.1023834113972351e+11  -2.3025963016511623e+10  7.1072996531983612e+10  -1.7207646001541656e+11  4.6531893422661728e+10  -1.2983631946739078e+11  -1.1944406229088629e+11  4.5522172393455780e+10  5.3300883329905128e+10  -4.2762601788676651e+10  -1.2216945346843080e+11  -1.0246381963476358e+11  -2.0012657873549506e+11  5.9048130849790298e+10  -3.1516477062725246e+10  6.7002935762193799e+11  1.5517326753740630e+12  -5.5218804021036694e+11  -1.0560329801581653e+11  -1.1334054686226700e+11  9.9303299832814301e+10  -9.3703614711103897e+09  -2.9414362699097748e+10  -3.0344095386737770e+10  6.7867320511548209e+08  2.9055346503642297e+11  2.9888083123138135e+11  2.1476489759402625e+11  2.7174115971857391e+11  2.9106272082369739e+11  2.6675727092043237e+11  1.7817224336339297e+11  9.2120303776343658e+10  3.7395197297788422e+10  1.0174480277682695e+10  -1.3196389176055081e+09  -4.4982326040110378e+09  8.7606881075000405e+08  -3.2307253975316086e+09  -1.5737287647215719e+09  2.6000000000000000e+01  -5.2000000000000000e+01  -4.8175864865489864e+04  -2.7955220708766813e+09  -3.5220400444142904e+09  -1.0710454734690773e+10  -8.2253224507798231e+08  -6.9112071574837479e+10  2.7895110936423504e+10  2.4563180088550186e+10  -6.6018647509292755e+10  2.2399571852319431e+10  -6.6225336091463223e+09  -1.1373072529322787e+11  -3.6934938747676941e+10  1.3031572557670401e+11  -7.0529302710401642e+10  1.7555631711371985e+11  -1.1821447106377838e+11  -1.3387552187307469e+11  1.6798880739206573e+11  -6.1954055391095795e+10  3.7826028469562408e+10  2.2054322937574826e+11  -2.0257230139203680e+11  1.2973994970156345e+11  -3.1304505915984871e+10  -7.1643254612335510e+09  -1.5265757068400140e+11  5.1930633768797287e+10  -1.331826