<?xml version="1.0"?>
<VTKFile type="UnstructuredGrid"  version="0.1"  >
<UnstructuredGrid>
<Piece  NumberOfPoints="441" NumberOfCells="800">
<Points>
<DataArray  type="Float64"  NumberOfComponents="3"  format="ascii">0 0 0  0.05 0 0  0.1 0 0  0.15 0 0  0.2 0 0  0.25 0 0  0.3 0 0  0.35 0 0  0.4 0 0  0.45 0 0  0.5 0 0  0.55 0 0  0.6 0 0  0.65 0 0  0.7 0 0  0.75 0 0  0.8 0 0  0.85 0 0  0.9 0 0  0.95 0 0  1 0 0  0 0.05 0  0.05 0.05 0  0.1 0.05 0  0.15 0.05 0  0.2 0.05 0  0.25 0.05 0  0.3 0.05 0  0.35 0.05 0  0.4 0.05 0  0.45 0.05 0  0.5 0.05 0  0.55 0.05 0  0.6 0.05 0  0.65 0.05 0  0.7 0.05 0  0.75 0.05 0  0.8 0.05 0  0.85 0.05 0  0.9 0.05 0  0.95 0.05 0  1 0.05 0  0 0.1 0  0.05 0.1 0  0.1 0.1 0  0.15 0.1 0  0.2 0.1 0  0.25 0.1 0  0.3 0.1 0  0.35 0.1 0  0.4 0.1 0  0.45 0.1 0  0.5 0.1 0  0.55 0.1 0  0.6 0.1 0  0.65 0.1 0  0.7 0.1 0  0.75 0.1 0  0.8 0.1 0  0.85 0.1 0  0.9 0.1 0  0.95 0.1 0  1 0.1 0  0 0.15 0  0.05 0.15 0  0.1 0.15 0  0.15 0.15 0  0.2 0.15 0  0.25 0.15 0  0.3 0.15 0  0.35 0.15 0  0.4 0.15 0  0.45 0.15 0  0.5 0.15 0  0.55 0.15 0  0.6 0.15 0  0.65 0.15 0  0.7 0.15 0  0.75 0.15 0  0.8 0.15 0  0.85 0.15 0  0.9 0.15 0  0.95 0.15 0  1 0.15 0  0 0.2 0  0.05 0.2 0  0.1 0.2 0  0.15 0.2 0  0.2 0.2 0  0.25 0.2 0  0.3 0.2 0  0.35 0.2 0  0.4 0.2 0  0.45 0.2 0  0.5 0.2 0  0.55 0.2 0  0.6 0.2 0  0.65 0.2 0  0.7 0.2 0  0.75 0.2 0  0.8 0.2 0  0.85 0.2 0  0.9 0.2 0  0.95 0.2 0  1 0.2 0  0 0.25 0  0.05 0.25 0  0.1 0.25 0  0.15 0.25 0  0.2 0.25 0  0.25 0.25 0  0.3 0.25 0  0.35 0.25 0  0.4 0.25 0  0.45 0.25 0  0.5 0.25 0  0.55 0.25 0  0.6 0.25 0  0.65 0.25 0  0.7 0.25 0  0.75 0.25 0  0.8 0.25 0  0.85 0.25 0  0.9 0.25 0  0.95 0.25 0  1 0.25 0  0 0.3 0  0.05 0.3 0  0.1 0.3 0  0.15 0.3 0  0.2 0.3 0  0.25 0.3 0  0.3 0.3 0  0.35 0.3 0  0.4 0.3 0  0.45 0.3 0  0.5 0.3 0  0.55 0.3 0  0.6 0.3 0  0.65 0.3 0  0.7 0.3 0  0.75 0.3 0  0.8 0.3 0  0.85 0.3 0  0.9 0.3 0  0.95 0.3 0  1 0.3 0  0 0.35 0  0.05 0.35 0  0.1 0.35 0  0.15 0.35 0  0.2 0.35 0  0.25 0.35 0  0.3 0.35 0  0.35 0.35 0  0.4 0.35 0  0.45 0.35 0  0.5 0.35 0  0.55 0.35 0  0.6 0.35 0  0.65 0.35 0  0.7 0.35 0  0.75 0.35 0  0.8 0.35 0  0.85 0.35 0  0.9 0.35 0  0.95 0.35 0  1 0.35 0  0 0.4 0  0.05 0.4 0  0.1 0.4 0  0.15 0.4 0  0.2 0.4 0  0.25 0.4 0  0.3 0.4 0  0.35 0.4 0  0.4 0.4 0  0.45 0.4 0  0.5 0.4 0  0.55 0.4 0  0.6 0.4 0  0.65 0.4 0  0.7 0.4 0  0.75 0.4 0  0.8 0.4 0  0.85 0.4 0  0.9 0.4 0  0.95 0.4 0  1 0.4 0  0 0.45 0  0.05 0.45 0  0.1 0.45 0  0.15 0.45 0  0.2 0.45 0  0.25 0.45 0  0.3 0.45 0  0.35 0.45 0  0.4 0.45 0  0.45 0.45 0  0.5 0.45 0  0.55 0.45 0  0.6 0.45 0  0.65 0.45 0  0.7 0.45 0  0.75 0.45 0  0.8 0.45 0  0.85 0.45 0  0.9 0.45 0  0.95 0.45 0  1 0.45 0  0 0.5 0  0.05 0.5 0  0.1 0.5 0  0.15 0.5 0  0.2 0.5 0  0.25 0.5 0  0.3 0.5 0  0.35 0.5 0  0.4 0.5 0  0.45 0.5 0  0.5 0.5 0  0.55 0.5 0  0.6 0.5 0  0.65 0.5 0  0.7 0.5 0  0.75 0.5 0  0.8 0.5 0  0.85 0.5 0  0.9 0.5 0  0.95 0.5 0  1 0.5 0  0 0.55 0  0.05 0.55 0  0.1 0.55 0  0.15 0.55 0  0.2 0.55 0  0.25 0.55 0  0.3 0.55 0  0.35 0.55 0  0.4 0.55 0  0.45 0.55 0  0.5 0.55 0  0.55 0.55 0  0.6 0.55 0  0.65 0.55 0  0.7 0.55 0  0.75 0.55 0  0.8 0.55 0  0.85 0.55 0  0.9 0.55 0  0.95 0.55 0  1 0.55 0  0 0.6 0  0.05 0.6 0  0.1 0.6 0  0.15 0.6 0  0.2 0.6 0  0.25 0.6 0  0.3 0.6 0  0.35 0.6 0  0.4 0.6 0  0.45 0.6 0  0.5 0.6 0  0.55 0.6 0  0.6 0.6 0  0.65 0.6 0  0.7 0.6 0  0.75 0.6 0  0.8 0.6 0  0.85 0.6 0  0.9 0.6 0  0.95 0.6 0  1 0.6 0  0 0.65 0  0.05 0.65 0  0.1 0.65 0  0.15 0.65 0  0.2 0.65 0  0.25 0.65 0  0.3 0.65 0  0.35 0.65 0  0.4 0.65 0  0.45 0.65 0  0.5 0.65 0  0.55 0.65 0  0.6 0.65 0  0.65 0.65 0  0.7 0.65 0  0.75 0.65 0  0.8 0.65 0  0.85 0.65 0  0.9 0.65 0  0.95 0.65 0  1 0.65 0  0 0.7 0  0.05 0.7 0  0.1 0.7 0  0.15 0.7 0  0.2 0.7 0  0.25 0.7 0  0.3 0.7 0  0.35 0.7 0  0.4 0.7 0  0.45 0.7 0  0.5 0.7 0  0.55 0.7 0  0.6 0.7 0  0.65 0.7 0  0.7 0.7 0  0.75 0.7 0  0.8 0.7 0  0.85 0.7 0  0.9 0.7 0  0.95 0.7 0  1 0.7 0  0 0.75 0  0.05 0.75 0  0.1 0.75 0  0.15 0.75 0  0.2 0.75 0  0.25 0.75 0  0.3 0.75 0  0.35 0.75 0  0.4 0.75 0  0.45 0.75 0  0.5 0.75 0  0.55 0.75 0  0.6 0.75 0  0.65 0.75 0  0.7 0.75 0  0.75 0.75 0  0.8 0.75 0  0.85 0.75 0  0.9 0.75 0  0.95 0.75 0  1 0.75 0  0 0.8 0  0.05 0.8 0  0.1 0.8 0  0.15 0.8 0  0.2 0.8 0  0.25 0.8 0  0.3 0.8 0  0.35 0.8 0  0.4 0.8 0  0.45 0.8 0  0.5 0.8 0  0.55 0.8 0  0.6 0.8 0  0.65 0.8 0  0.7 0.8 0  0.75 0.8 0  0.8 0.8 0  0.85 0.8 0  0.9 0.8 0  0.95 0.8 0  1 0.8 0  0 0.85 0  0.05 0.85 0  0.1 0.85 0  0.15 0.85 0  0.2 0.85 0  0.25 0.85 0  0.3 0.85 0  0.35 0.85 0  0.4 0.85 0  0.45 0.85 0  0.5 0.85 0  0.55 0.85 0  0.6 0.85 0  0.65 0.85 0  0.7 0.85 0  0.75 0.85 0  0.8 0.85 0  0.85 0.85 0  0.9 0.85 0  0.95 0.85 0  1 0.85 0  0 0.9 0  0.05 0.9 0  0.1 0.9 0  0.15 0.9 0  0.2 0.9 0  0.25 0.9 0  0.3 0.9 0  0.35 0.9 0  0.4 0.9 0  0.45 0.9 0  0.5 0.9 0  0.55 0.9 0  0.6 0.9 0  0.65 0.9 0  0.7 0.9 0  0.75 0.9 0  0.8 0.9 0  0.85 0.9 0  0.9 0.9 0  0.95 0.9 0  1 0.9 0  0 0.95 0  0.05 0.95 0  0.1 0.95 0  0.15 0.95 0  0.2 0.95 0  0.25 0.95 0  0.3 0.95 0  0.35 0.95 0  0.4 0.95 0  0.45 0.95 0  0.5 0.95 0  0.55 0.95 0  0.6 0.95 0  0.65 0.95 0  0.7 0.95 0  0.75 0.95 0  0.8 0.95 0  0.85 0.95 0  0.9 0.95 0  0.95 0.95 0  1 0.95 0  0 1 0  0.05 1 0  0.1 1 0  0.15 1 0  0.2 1 0  0.25 1 0  0.3 1 0  0.35 1 0  0.4 1 0  0.45 1 0  0.5 1 0  0.55 1 0  0.6 1 0  0.65 1 0  0.7 1 0  0.75 1 0  0.8 1 0  0.85 1 0  0.9 1 0  0.95 1 0  1 1 0  </DataArray>
</Points>
<Cells>
[...]
<PointData  Scalars="f_6"> 
<DataArray  type="Float64"  Name="f_6"  format="ascii">-2.0000000000000000e+00  -1.8499999999999999e+00  -1.7000000000000000e+00  -1.5500000000000000e+00  -1.4000000000000001e+00  -1.2500000000000000e+00  -1.0999999999999999e+00  -9.5000000000000007e-01  -7.9999999999999993e-01  -6.5000000000000013e-01  -5.0000000000000000e-01  -3.4999999999999987e-01  -2.0000000000000007e-01  -4.9999999999999933e-02  9.9999999999999867e-02  2.5000000000000000e-01  4.0000000000000013e-01  5.4999999999999993e-01  7.0000000000000007e-01  8.4999999999999987e-01  1.0000000000000000e+00  -2.0000000000000000e+00  -1.3114766656030825e+00  -1.1446319317737985e+00  -1.0450336254988994e+00  -9.6040321938253848e-01  -8.8167004779399138e-01  -7.9957899412432598e-01  -7.0790867992459505e-01  -6.0431569959357279e-01  -4.8935612992359684e-01  -3.6604141983499650e-01  -2.3728744184278530e-01  -1.0502203042265700e-01  2.9610209387518491e-02  1.6591086657152654e-01  3.0342076531701206e-01  4.4181544397490763e-01  5.8085089797203215e-01  7.2033284642640405e-01  8.6009775281689838e-01  1.0000000000000000e+00  -2.0000000000000000e+00  -9.5309079330741009e-01  -7.7370376810204544e-01  -7.0596536148294653e-01  -6.5666609090791028e-01  -6.1173120642652634e-01  -5.6239248636765038e-01  -5.0226524741388490e-01  -4.2790262681451752e-01  -3.3883804174446291e-01  -2.3778688221971284e-01  -1.2810916529006744e-01  -1.2411687772888935e-02  1.0755199729395756e-01  2.3061249158156749e-01  3.5595675072161409e-01  4.8299011261058572e-01  6.1125530148681761e-01  7.4038273491668505e-01  8.7005816484118981e-01  1.0000000000000000e+00  -2.0000000000000000e+00  -7.0280464190463665e-01  -5.1123184519499454e-01  -4.6099494020808102e-01  -4.3013818587230213e-01  -4.0209721567498258e-01  -3.6975097727239226e-01  -3.2763334780115427e-01  -2.7205476266625389e-01  -2.0170947624933175e-01  -1.1837904717998099e-01  -2.4970295809810274e-02  7.5931744401740081e-02  1.8239697230357582e-01  2.9303035173916431e-01  4.0680363337729103e-01  5.2293295425900355e-01  6.4079746044796770e-01  7.5988462691232928e-01  8.7975217163117614e-01  1.0000000000000000e+00  -2.0000000000000000e+00  -5.1795542316076892e-01  -3.1411164552838833e-01  -2.7287106225564722e-01  -2.5176119010938175e-01  -2.3269394519799969e-01  -2.0982047939510248e-01  -1.7858892322402509e-01  -1.3546494812923562e-01  -7.8694009299457149e-02  -9.2333306544856494e-03  7.0658409203328262e-02  1.5871137214637482e-01  2.5307379250263956e-01  3.5230830969421634e-01  4.5529447678938245e-01  5.6114061060016984e-01  6.6911695913372071e-01  7.7860614065348810e-01  8.8906589477118636e-01  1.0000000000000000e+00  -2.0000000000000000e+00  -3.7433385901982741e-01  -1.5863820092377842e-01  -1.2184016848943785e-01  -1.0608359219386887e-01  -9.2113013138741678e-02  -7.4903911611927970e-02  -5.0634587083166413e-02  -1.6070230536149453e-02  3.0708933242513049e-02  8.9326574644199658e-02  1.5811135137354018e-01  2.3518100135019895e-01  3.1887851295016378e-01  4.0783461774567303e-01  5.0092535348585243e-01  5.9721805221857249e-01  6.9592362483325765e-01  7.9635708179671583e-01  8.9790526680008176e-01  1.0000000000000000e+00  -2.0000000000000000e+00  -2.5830206492957636e-01  -3.1613032534305877e-02  3.0773851826131470e-03  1.5730494629942481e-02  2.6599365093604933e-02  4.0189802246130168e-02  5.9764106426574357e-02  8.8228928448568028e-02  1.2750521646214905e-01  1.7758771302363341e-01  2.3726682569068289e-01  3.0502229307829215e-01  3.7942463760601997e-01  4.5922629485245403e-01  5.4335426718978208e-01  6.3088261995501027e-01  7.2100240618402134e-01  8.1299329490003569e-01  9.0619809063242540e-01  1.0000000000000000e+00  -2.0000000000000000e+00  -1.6200672619757830e-01  7.4609314842727564e-02  1.0836917946428797e-01  1.1910926465629842e-01  1.2796122277191410e-01  1.3909830192224623e-01  1.5535313594369657e-01  1.7932250172136008e-01  2.1284542214958951e-01  2.5613907760834509e-01  3.0833496412453149e-01  3.6821628767382569e-01  4.3457144722802332e-01  5.0629165686833633e-01  5.8238280046581137e-01  6.6195575422766562e-01  7.4421008504778197e-01  8.2841560098698019e-01  9.1389380082958349e-01  1.0000000000000000e+00  -2.0000000000000000e+00  -8.0723421766081660e-02  1.6471170879048030e-01  1.9813065286712475e-01  2.0761705786259632e-01  2.1507780335527224e-01  2.2446506690949256e-01  2.3827660472923179e-01  2.5883351680180688e-01  2.8785712656062301e-01  3.2568993069710706e-01  3.7170802362699740e-01  4.2493607387588650e-01  4.8435320469359888e-01  5.4898608492705225e-01  6.1792952357746112e-01  6.9034751144205897e-01  7.6546657879246083e-01  8.4256522317051907e-01  9.2096151169892881e-01  1.0000000000000000e+00  -2.0000000000000000e+00  -1.1445319906012339e-02  2.4174511119166853e-01  2.7511602895594317e-01  2.8373416829518006e-01  2.9018706160680080e-01  2.9827396234411052e-01  3.1022739096230234e-01  3.2812979979915796e-01  3.5357475496297819e-01  3.8696930217443115e-01  4.2786259880065824e-01  4.7546644762209495e-01  5.2891921088542160e-01  5.8736995456880892e-01  6.5000169747492098e-01  7.1603818917064832e-01  7.8474349550948352e-01  8.5541720120370668e-01  9.2738702279561280e-01  1.0000000000000000e+00  -2.0000000000000000e+00  4.7857551314602328e-02  3.0781754895366620e-01  3.4128199584186797e-01  3.4927058924883547e-01  3.5496487059082454e-01  3.6205438377781596e-01  3.7255865612529326e-01  3.8835633799495228e-01  4.1091641619875197e-01  4.4067363457165448e-01  4.7729902598673812e-01  5.2014760947645133e-01  5.6848723498258458e-01  6.2157282498783750e-01  6.7866912258276579e-01  7.3906005225612947e-01  8.0205201287111871e-01  8.6697306333921142e-01  9.3316937827981572e-01  1.0000000000000000e+00  -2.0000000000000000e+00  9.8630692042382062e-02  3.6445980779745774e-01  3.9808083735005950e-01  4.0559661390688501e-01  4.1070370419118907e-01  4.1701054913523633e-01  4.2636390419888137e-01  4.4046974923376286e-01  4.6068206239984616e-01  4.8744167199776828e-01  5.2050544514888586e-01  5.5933746112225424e-01  6.0330929306392644e-01  6.5176498781718784e-01  7.0404191561217544e-01  7.5948088439998518e-01  8.1743144037964999e-01  8.7725366100220492e-01  9.3831742698443843e-01  1.0000000000000000e+00  -2.0000000000000000e+00  1.4194825863829996e-01  4.1282666676149948e-01  4.4662586094617640e-01  4.5377766421201576e-01  4.5842176348302727e-01  4.6410528681902841e-01  4.7253403996338866e-01  4.8526864408297443e-01  5.0356040564406479e-01  5.2784418891490625e-01  5.5793745925093130e-01  5.9338725341885756e-01  6.3364748695233286e-01  6.7813591760480940e-01  7.2625266764876317e-01  7.7739012935198581e-01  8.3093920324529025e-01  8.8629271330552073e-01  9.4284666865573274e-01  1.0000000000000000e+00  -2.0000000000000000e+00  1.7863295502541746e-01  4.5381237275945790e-01  4.8778915813363560e-01  4.9465672029387903e-01  4.9893222982803959e-01  5.0411580349340890e-01  5.1179816648911458e-01  5.2341848862649210e-01  5.4013865006318418e-01  5.6238147118494985e-01  5.9000733445505738e-01  6.2262638392935510e-01  6.5975748245574606e-01  7.0087852800095130e-01  7.4544270802608137e-01  7.9288776211390499e-01  8.4264252994400513e-01  8.9413132031885534e-01  9.4677653433297171e-01  1.0000000000000000e+00  -2.0000000000000000e+00  2.0932600470703078e-01  4.8811966722291950e-01  5.2226183594694153e-01  5.2890670235572401e-01  5.3288868872694173e-01  5.3767170404198572e-01  5.4475298565939478e-01  5.5547130603328443e-01  5.7091237034451281e-01  5.9148460204563313e-01  6.1707886418325597e-01  6.4735326055560094e-01  6.8187752977183391e-01  7.2017800391716569e-01  7.6175187434070601e-01  8.0607568113354811e-01  8.5261183409796992e-01  9.0081350369292412e-01  9.5012814835729897e-01  1.0000000000000000e+00  -2.0000000000000000e+00  2.3452884210870079e-01  5.1630220487659295e-01  5.5059222264192365e-01  5.5706468954181576e-01  5.6081566854590059e-01  5.6528142387765401e-01  5.7188418280015163e-01  5.8188105392975187e-01  5.9629444639665752e-01  6.1551839891402282e-01  6.3946547653613162e-01  6.6783007410415285e-01  7.0022137107167615e-01  7.3620408355516920e-01  7.7531110428602912e-01  8.1705125398161205e-01  8.6091562162140245e-01  9.0638271199757248e-01  9.5292255540330095e-01  1.0000000000000000e+00  -2.0000000000000000e+00  2.5462653602724239e-01  5.3879017263207452e-01  5.7320998804032963e-01  5.7955431590260875e-01  5.8312934252179460e-01  5.8735083738453098e-01  5.9358213802701110e-01  6.0301556494517683e-01  6.1662270340901093e-01  6.3478484432724180e-01  6.5743009129570251e-01  6.8428000992959170e-01  7.1497379583507592e-01  7.4910585494580351e-01  7.8623720526662921e-01  8.2590260888546840e-01  8.6761668640845557e-01  9.1087916727266316e-01  9.5517936125833225e-01  1.0000000000000000e+00  -2.0000000000000000e+00  2.6989458364697955e-01  5.5590309623910950e-01  5.9043969758118586e-01  5.9669929829150115e-01  6.0015105720879824e-01  6.0419638205182724e-01  6.1015366653400871e-01  6.1916587119425615e-01  6.3216622989312554e-01  6.4952638425237541e-01  6.7118579850580151e-01  6.9688590961763341e-01  7.2628794642588468e-01  7.5900833512633781e-01  7.9462925294921616e-01  8.3270528988517700e-01  8.7276934785428861e-01  9.1433790942629223e-01  9.5691572235736488e-01  1.0000000000000000e+00  -2.0000000000000000e+00  2.8047755450893536e-01  5.6784967732775848e-01  6.0250405484874459e-01  6.0872808643102527e-01  6.1211436230741634e-01  6.1605422161992207e-01  6.2183128163459012e-01  6.3055369707501951e-01  6.4313043214299226e-01  6.5992869984153979e-01  6.8089675622190038e-01  7.0578972192930556e-01  7.3428374419760456e-01  7.6601028618444533e-01  8.0056618151872050e-01  8.3751994985173539e-01  8.7641750569722965e-01  9.1678740022085303e-01  9.5814561874483595e-01  1.0000000000000000e+00  -2.0000000000000000e+00  2.8628633298271550e-01  5.7471234540204452e-01  6.0951453080581064e-01  6.1576514958928896e-01  6.1916314854197618e-01  6.2308677157996706e-01  6.2878202647450221e-01  6.3733793724477938e-01  6.4966070515731345e-01  6.6612254844570840e-01  6.8667888053432324e-01  7.1109232104695030e-01  7.3904702135235123e-01  7.7018288389511647e-01  8.0410523708948489e-01  8.4039082230581474e-01  8.7859332486204211e-01  9.1824856701505464e-01  9.5887935240112576e-01  1.0000000000000000e+00  -2.0000000000000000e+00  2.8659045403868660e-01  5.7642514507808429e-01  6.1144947787803894e-01  6.1779486753163426e-01  6.2133025556870003e-01  6.2538930292350736e-01  6.3112045074404877e-01  6.3962075832752374e-01  6.5184377944051797e-01  6.6818399832032216e-01  6.8860004883688564e-01  7.1285350673674153e-01  7.4062913538820740e-01  7.7156899095418252e-01  8.0528106063828730e-01  8.4134477741999680e-01  8.7931640443006975e-01  9.1873419057619787e-01  9.5912322384461257e-01  1.0000000000000000e+00  </DataArray> 
</PointData> 
</Piece>
</UnstructuredGrid>
</VTKFile>