<?xml version="1.0"?>
<VTKFile type="UnstructuredGrid"  version="0.1"  >
<UnstructuredGrid>
<Piece  NumberOfPoints="4225" NumberOfCells="8192">
<Points>
<DataArray  type="Float64"  NumberOfComponents="3"  format="ascii">0 0 0  0.015625 0 0  0.03125 0 0  0.046875 0 0  0.0625 0 0  0.078125 0 0  0.09375 0 0  0.109375 0 0  0.125 0 0  0.140625 0 0  0.15625 0 0  0.171875 0 0  0.1875 0 0  0.203125 0 0  0.21875 0 0  0.234375 0 0  0.25 0 0  0.265625 0 0  0.28125 0 0  0.296875 0 0  0.3125 0 0  0.328125 0 0  0.34375 0 0  0.359375 0 0  0.375 0 0  0.390625 0 0  0.40625 0 0  0.421875 0 0  0.4375 0 0  0.453125 0 0  0.46875 0 0  0.484375 0 0  0.5 0 0  0.515625 0 0  0.53125 0 0  0.546875 0 0  0.5625 0 0  0.578125 0 0  0.59375 0 0  0.609375 0 0  0.625 0 0  0.640625 0 0  0.65625 0 0  0.671875 0 0  0.6875 0 0  0.703125 0 0  0.71875 0 0  0.734375 0 0  0.75 0 0  0.765625 0 0  0.78125 0 0  0.796875 0 0  0.8125 0 0  0.828125 0 0  0.84375 0 0  0.859375 0 0  0.875 0 0  0.890625 0 0  0.90625 0 0  0.921875 0 0  0.9375 0 0  0.953125 0 0  0.96875 0 0  0.984375 0 0  1 0 0  0 0.015625 0  0.015625 0.015625 0  0.03125 0.015625 0  0.046875 0.015625 0  0.0625 0.015625 0  0.078125 0.015625 0  0.09375 0.015625 0  0.109375 0.015625 0  0.125 0.015625 0  0.140625 0.015625 0  0.15625 0.015625 0  0.171875 0.015625 0  0.1875 0.015625 0  0.203125 0.015625 0  0.21875 0.015625 0  0.234375 0.015625 0  0.25 0.015625 0  0.265625 0.015625 0  0.28125 0.015625 0  0.296875 0.015625 0  0.3125 0.015625 0  0.328125 0.015625 0  0.34375 0.015625 0  0.359375 0.015625 0  0.375 0.015625 0  0.390625 0.015625 0  0.40625 0.015625 0  0.421875 0.015625 0  0.4375 0.015625 0  0.453125 0.015625 0  0.46875 0.015625 0  0.484375 0.015625 0  0.5 0.015625 0  0.515625 0.015625 0  0.53125 0.015625 0  0.546875 0.015625 0  0.5625 0.015625 0  0.578125 0.015625 0  0.59375 0.015625 0  0.609375 0.015625 0  0.625 0.015625 0  0.640625 0.015625 0  0.65625 0.015625 0  0.671875 0.015625 0  0.6875 0.015625 0  0.703125 0.015625 0  0.71875 0.015625 0  0.734375 0.015625 0  0.75 0.015625 0  0.765625 0.015625 0  0.78125 0.015625 0  0.796875 0.015625 0  0.8125 0.015625 0  0.828125 0.015625 0  0.84375 0.015625 0  0.859375 0.015625 0  0.875 0.015625 0  0.890625 0.015625 0  0.90625 0.015625 0  0.921875 0.015625 0  0.9375 0.015625 0  0.953125 0.015625 0  0.96875 0.015625 0  0.984375 0.015625 0  1 0.015625 0  0 0.03125 0  0.015625 0.03125 0  0.03125 0.03125 0  0.046875 0.03125 0  0.0625 0.03125 0  0.078125 0.03125 0  0.09375 0.03125 0  0.109375 0.03125 0  0.125 0.03125 0  0.140625 0.03125 0  0.15625 0.03125 0  0.171875 0.03125 0  0.1875 0.03125 0  0.203125 0.03125 0  0.21875 0.03125 0  0.234375 0.03125 0  0.25 0.03125 0  0.265625 0.03125 0  0.28125 0.03125 0  0.296875 0.03125 0  0.3125 0.03125 0  0.328125 0.03125 0  0.34375 0.03125 0  0.359375 0.03125 0  0.375 0.03125 0  0.390625 0.03125 0  0.40625 0.03125 0  0.421875 0.03125 0  0.4375 0.03125 0  0.453125 0.03125 0  0.46875 0.03125 0  0.484375 0.03125 0  0.5 0.03125 0  0.515625 0.03125 0  0.53125 0.03125 0  0.546875 0.03125 0  0.5625 0.03125 0  0.578125 0.03125 0  0.59375 0.03125 0  0.609375 0.03125 0  0.625 0.03125 0  0.640625 0.03125 0  0.65625 0.03125 0  0.671875 0.03125 0  0.6875 0.03125 0  0.703125 0.03125 0  0.71875 0.03125 0  0.734375 0.03125 0  0.75 0.03125 0  0.765625 0.03125 0  0.78125 0.03125 0  0.796875 0.03125 0  0.8125 0.03125 0  0.828125 0.03125 0  0.84375 0.03125 0  0.859375 0.03125 0  0.875 0.03125 0  0.890625 0.03125 0  0.90625 0.03125 0  0.921875 0.03125 0  0.9375 0.03125 0  0.953125 0.03125 0  0.96875 0.03125 0  0.984375 0.03125 0  1 0.03125 0  0 0.046875 0  0.015625 0.046875 0  0.03125 0.046875 0  0.046875 0.046875 0  0.0625 0.046875 0  0.078125 0.046875 0  0.09375 0.046875 0  0.109375 0.046875 0  0.125 0.046875 0  0.140625 0.046875 0  0.15625 0.046875 0  0.171875 0.046875 0  0.1875 0.046875 0  0.203125 0.046875 0  0.21875 0.046875 0  0.234375 0.046875 0  0.25 0.046875 0  0.265625 0.046875 0  0.28125 0.046875 0  0.296875 0.046875 0  0.3125 0.046875 0  0.328125 0.046875 0  0.34375 0.046875 0  0.359375 0.046875 0  0.375 0.046875 0  0.390625 0.046875 0  0.40625 0.046875 0  0.421875 0.046875 0  0.4375 0.046875 0  0.453125 0.046875 0  0.46875 0.046875 0  0.484375 0.046875 0  0.5 0.046875 0  0.515625 0.046875 0  0.53125 0.046875 0  0.546875 0.046875 0  0.5625 0.046875 0  0.578125 0.046875 0  0.59375 0.046875 0  0.609375 0.046875 0  0.625 0.046875 0  0.640625 0.046875 0  0.65625 0.046875 0  0.671875 0.046875 0  0.6875 0.046875 0  0.703125 0.046875 0  0.71875 0.046875 0  0.734375 0.046875 0  0.75 0.046875 0  0.765625 0.046875 0  0.78125 0.046875 0  0.796875 0.046875 0  0.8125 0.046875 0  0.828125 0.046875 0  0.84375 0.046875 0  0.859375 0.046875 0  0.875 0.046875 0  0.890625 0.046875 0  0.90625 0.046875 0  0.921875 0.046875 0  0.9375 0.046875 0  0.953125 0.046875 0  0.96875 0.046875 0  0.984375 0.046875 0  1 0.046875 0  0 0.0625 0  0.015625 0.0625 0  0.03125 0.0625 0  0.046875 0.0625 0  0.0625 0.0625 0  0.078125 0.0625 0  0.09375 0.0625 0  0.109375 0.0625 0  0.125 0.0625 0  0.140625 0.0625 0  0.15625 0.0625 0  0.171875 0.0625 0  0.1875 0.0625 0  0.203125 0.0625 0  0.21875 0.0625 0  0.234375 0.0625 0  0.25 0.0625 0  0.265625 0.0625 0  0.28125 0.0625 0  0.296875 0.0625 0  0.3125 0.0625 0  0.328125 0.0625 0  0.34375 0.0625 0  0.359375 0.0625 0  0.375 0.0625 0  0.390625 0.0625 0  0.40625 0.0625 0  0.421875 0.0625 0  0.4375 0.0625 0  0.453125 0.0625 0  0.46875 0.0625 0  0.484375 0.0625 0  0.5 0.0625 0  0.515625 0.0625 0  0.53125 0.0625 0  0.546875 0.0625 0  0.5625 0.0625 0  0.578125 0.0625 0  0.59375 0.0625 0  0.609375 0.0625 0  0.625 0.0625 0  0.640625 0.0625 0  0.65625 0.0625 0  0.671875 0.0625 0  0.6875 0.0625 0  0.703125 0.0625 0  0.71875 0.0625 0  0.734375 0.0625 0  0.75 0.0625 0  0.765625 0.0625 0  0.78125 0.0625 0  0.796875 0.0625 0  0.8125 0.0625 0  0.828125 0.0625 0  0.84375 0.0625 0  0.859375 0.0625 0  0.875 0.0625 0  0.890625 0.0625 0  0.90625 0.0625 0  0.921875 0.0625 0  0.9375 0.0625 0  0.953125 0.0625 0  0.96875 0.0625 0  0.984375 0.0625 0  1 0.0625 0  0 0.078125 0  0.015625 0.078125 0  0.03125 0.078125 0  0.046875 0.078125 0  0.0625 0.078125 0  0.078125 0.078125 0  0.09375 0.078125 0  0.109375 0.078125 0  0.125 0.078125 0  0.140625 0.078125 0  0.15625 0.078125 0  0.171875 0.078125 0  0.1875 0.078125 0  0.203125 0.078125 0  0.21875 0.078125 0  0.234375 0.078125 0  0.25 0.078125 0  0.265625 0.078125 0  0.28125 0.078125 0  0.296875 0.078125 0  0.3125 0.078125 0  0.328125 0.078125 0  0.34375 0.078125 0  0.359375 0.078125 0  0.375 0.078125 0  0.390625 0.078125 0  0.40625 0.078125 0  0.421875 0.078125 0  0.4375 0.078125 0  0.453125 0.078125 0  0.46875 0.078125 0  0.484375 0.078125 0  0.5 0.078125 0  0.515625 0.078125 0  0.53125 0.078125 0  0.546875 0.078125 0  0.5625 0.078125 0  0.578125 0.078125 0  0.59375 0.078125 0  0.609375 0.078125 0  0.625 0.078125 0  0.640625 0.078125 0  0.65625 0.078125 0  0.671875 0.078125 0  0.6875 0.078125 0  0.703125 0.078125 0  0.71875 0.078125 0  0.734375 0.078125 0  0.75 0.078125 0  0.765625 0.078125 0  0.78125 0.078125 0  0.796875 0.078125 0  0.8125 0.078125 0  0.828125 0.078125 0  0.84375 0.078125 0  0.859375 0.078125 0  0.875 0.078125 0  0.890625 0.078125 0  0.90625 0.078125 0  0.921875 0.078125 0  0.9375 0.078125 0  0.953125 0.078125 0  0.96875 0.078125 0  0.984375 0.078125 0  1 0.078125 0  0 0.09375 0  0.015625 0.09375 0  0.03125 0.09375 0  0.046875 0.09375 0  0.0625 0.09375 0  0.078125 0.09375 0  0.09375 0.09375 0  0.109375 0.09375 0  0.125 0.09375 0  0.140625 0.09375 0  0.15625 0.09375 0  0.171875 0.09375 0  0.1875 0.09375 0  0.203125 0.09375 0  0.21875 0.09375 0  0.234375 0.09375 0  0.25 0.09375 0  0.265625 0.09375 0  0.28125 0.09375 0  0.296875 0.09375 0  0.3125 0.09375 0  0.328125 0.09375 0  0.34375 0.09375 0  0.359375 0.09375 0  0.375 0.09375 0  0.390625 0.09375 0  0.40625 0.09375 0  0.421875 0.09375 0  0.4375 0.09375 0  0.453125 0.09375 0  0.46875 0.09375 0  0.484375 0.09375 0  0.5 0.09375 0  0.515625 0.09375 0  0.53125 0.09375 0  0.546875 0.09375 0  0.5625 0.09375 0  0.578125 0.09375 0  0.59375 0.09375 0  0.609375 0.09375 0  0.625 0.09375 0  0.640625 0.09375 0  0.65625 0.09375 0  0.671875 0.09375 0  0.6875 0.09375 0  0.703125 0.09375 0  0.71875 0.09375 0  0.734375 0.09375 0  0.75 0.09375 0  0.765625 0.09375 0  0.78125 0.09375 0  0.796875 0.09375 0  0.8125 0.09375 0  0.828125 0.09375 0  0.84375 0.09375 0  0.859375 0.09375 0  0.875 0.09375 0  0.890625 0.09375 0  0.90625 0.09375 0  0.921875 0.09375 0  0.9375 0.09375 0  0.953125 0.09375 0  0.96875 0.09375 0  0.984375 0.09375 0  1 0.09375 0  0 0.109375 0  0.015625 0.109375 0  0.03125 0.109375 0  0.046875 0.109375 0  0.0625 0.109375 0  0.078125 0.109375 0  0.09375 0.109375 0  0.109375 0.109375 0  0.125 0.109375 0  0.140625 0.109375 0  0.15625 0.109375 0  0.171875 0.109375 0  0.1875 0.109375 0  0.203125 0.109375 0  0.21875 0.109375 0  0.234375 0.109375 0  0.25 0.109375 0  0.265625 0.109375 0  0.28125 0.109375 0  0.296875 0.109375 0  0.3125 0.109375 0  0.328125 0.109375 0  0.34375 0.109375 0  0.359375 0.109375 0  0.375 0.109375 0  0.390625 0.109375 0  0.40625 0.109375 0  0.421875 0.109375 0  0.4375 0.109375 0  0.453125 0.109375 0  0.46875 0.109375 0  0.484375 0.109375 0  0.5 0.109375 0  0.515625 0.109375 0  0.53125 0.109375 0  0.546875 0.109375 0  0.5625 0.109375 0  0.578125 0.109375 0  0.59375 0.109375 0  0.609375 0.109375 0  0.625 0.109375 0  0.640625 0.109375 0  0.65625 0.109375 0  0.671875 0.109375 0  0.6875 0.109375 0  0.703125 0.109375 0  0.71875 0.109375 0  0.734375 0.109375 0  0.75 0.109375 0  0.765625 0.109375 0  0.78125 0.109375 0  0.796875 0.109375 0  0.8125 0.109375 0  0.828125 0.109375 0  0.84375 0.109375 0  0.859375 0.109375 0  0.875 0.109375 0  0.890625 0.109375 0  0.90625 0.109375 0  0.921875 0.109375 0  0.9375 0.109375 0  0.953125 0.109375 0  0.96875 0.109375 0  0.984375 0.109375 0  1 0.109375 0  0 0.125 0  0.015625 0.125 0  0.03125 0.125 0  0.046875 0.125 0  0.0625 0.125 0  0.078125 0.125 0  0.09375 0.125 0  0.109375 0.125 0  0.125 0.12
[...]
<PointData  Scalars="f_6"> 
<DataArray  type="Float64"  Name="f_6"  format="ascii">-2.0000000000000000e+00  -1.9531250000000000e+00  -1.9062500000000000e+00  -1.8593750000000000e+00  -1.8125000000000000e+00  -1.7656250000000000e+00  -1.7187500000000000e+00  -1.6718750000000000e+00  -1.6250000000000000e+00  -1.5781250000000000e+00  -1.5312500000000000e+00  -1.4843750000000000e+00  -1.4375000000000000e+00  -1.3906250000000000e+00  -1.3437500000000000e+00  -1.2968750000000000e+00  -1.2500000000000000e+00  -1.2031250000000000e+00  -1.1562500000000000e+00  -1.1093750000000000e+00  -1.0625000000000000e+00  -1.0156250000000000e+00  -9.6875000000000011e-01  -9.2187500000000000e-01  -8.7500000000000000e-01  -8.2812500000000000e-01  -7.8125000000000000e-01  -7.3437500000000000e-01  -6.8750000000000000e-01  -6.4062500000000000e-01  -5.9375000000000000e-01  -5.4687500000000000e-01  -5.0000000000000000e-01  -4.5312500000000000e-01  -4.0625000000000000e-01  -3.5937500000000000e-01  -3.1250000000000000e-01  -2.6562500000000000e-01  -2.1875000000000000e-01  -1.7187500000000000e-01  -1.2500000000000000e-01  -7.8125000000000000e-02  -3.1250000000000000e-02  1.5625000000000000e-02  6.2500000000000000e-02  1.0937500000000000e-01  1.5625000000000000e-01  2.0312500000000000e-01  2.5000000000000000e-01  2.9687500000000000e-01  3.4375000000000000e-01  3.9062500000000000e-01  4.3750000000000000e-01  4.8437500000000000e-01  5.3125000000000000e-01  5.7812500000000000e-01  6.2500000000000000e-01  6.7187500000000000e-01  7.1875000000000000e-01  7.6562500000000000e-01  8.1250000000000000e-01  8.5937500000000000e-01  9.0625000000000000e-01  9.5312500000000000e-01  1.0000000000000000e+00  -2.0000000000000000e+00  -1.9132776144966728e+00  -1.8332454475932025e+00  -1.7584767714007339e+00  -1.6880496429422283e+00  -1.6212943235656785e+00  -1.5576913171202915e+00  -1.4968220393591867e+00  -1.4383411127473553e+00  -1.3819589562194210e+00  -1.3274299232989404e+00  -1.2745437439420071e+00  -1.2231190932085605e+00  -1.1729986140030859e+00  -1.1240449806841213e+00  -1.0761377342990874e+00  -1.0291707053673078e+00  -9.8304989345105576e-01  -9.3769170786412326e-01  -8.9302149812195175e-01  -8.4897232036725390e-01  -8.0548389963310296e-01  -7.6250175920468655e-01  -7.1997649885848258e-01  -6.7786321468408028e-01  -6.3612106634981302e-01  -5.9471301629580720e-01  -5.5360579428824230e-01  -5.1277018201741897e-01  -4.7218174613742808e-01  -4.3182208494170893e-01  -3.9168026065317674e-01  -3.5175302822753141e-01  -3.1204118651331275e-01  -2.7254265114989573e-01  -2.3326147182411486e-01  -1.9425938752244593e-01  -1.5564366134802540e-01  -1.1734945767085733e-01  -7.9134231441513853e-02  -4.4580484659572386e-02  -1.1929144288272782e-02  2.1762404730052427e-02  5.7385525432908369e-02  9.6133893379541965e-02  1.3801014348542306e-01  1.8130824044906516e-01  2.2537373401970884e-01  2.6991220328194077e-01  3.1477088809993048e-01  3.5986083482481940e-01  4.0512544945060447e-01  4.5052621823020611e-01  4.9603552802814704e-01  5.4163273745719720e-01  5.8730187331035377e-01  6.3303020157536471e-01  6.7880729841423404e-01  7.2462442144604522e-01  7.7047406879347835e-01  8.1634965932164383e-01  8.6224529295853058e-01  9.0815556465966052e-01  9.5407541429471476e-01  1.0000000000000000e+00  -2.0000000000000000e+00  -1.8765599832881206e+00  -1.7679434704650572e+00  -1.6707410787691621e+00  -1.5826033589687272e+00  -1.5018322735957734e+00  -1.4271533598778789e+00  -1.3575820693942171e+00  -1.2923406774823296e+00  -1.2308038819564591e+00  -1.1724616266777477e+00  -1.1168928024025462e+00  -1.0637461154318475e+00  -1.0127258492193696e+00  -9.6358106496075802e-01  -9.1609727878232705e-01  -8.7008995952083745e-01  -8.2539938874941132e-01  -7.8188655618762704e-01  -7.3942985361207358e-01  -6.9792239379381726e-01  -6.5726982728135974e-01  -6.1738856528491926e-01  -5.7820434585261204e-01  -5.3965110623991086e-01  -5.0167015011418636e-01  -4.6420962936946908e-01  -4.2722440788576577e-01  -3.9067645706729814e-01  -3.5453606372376500e-01  -3.1878425864673787e-01  -2.8341670411109904e-01  -2.4844782231709370e-01  -2.1390902674399787e-01  -1.7982874121003967e-01  -1.4621875252639804e-01  -1.1323377194247196e-01  -8.1386405014518118e-02  -5.0930149097978078e-02  -2.3025214325516383e-02  3.0230673712299538e-03  2.9784729158818350e-02  5.8754500740459209e-02  9.0821048630405618e-02  1.2663990459983640e-01  1.6522344011308515e-01  2.0559908429112872e-01  2.4714949234782935e-01  2.8950419100812397e-01  3.3243551429296170e-01  3.7579700174874242e-01  4.1948974474739226e-01  4.6344389544207298e-01  5.0760815642518520e-01  5.5194354849028782e-01  5.9641955420885306e-01  6.4101163457687160e-01  6.8569957063552667e-01  7.3046631857646893e-01  7.7529719440622424e-01  8.2017927553456627e-01  8.6510094785281777e-01  9.1005155138539640e-01  9.5502109251919853e-01  1.0000000000000000e+00  -2.0000000000000000e+00  -1.8423802200941946e+00  -1.7090092874910767e+00  -1.5935911076534526e+00  -1.4919108710610141e+00  -1.4010248116002979e+00  -1.3188023540730500e+00  -1.2436553282208820e+00  -1.1743706150546769e+00  -1.1100024881621253e+00  -1.0498008682821423e+00  -9.9316202489105954e-01  -9.3959379508431629e-01  -8.8869047817570146e-01  -8.4011435185277195e-01  -7.9358182644700781e-01  -7.4885291567269896e-01  -7.0572312299932216e-01  -6.6401711741663716e-01  -6.2358375596354232e-01  -5.8429213626830989e-01  -5.4602845120591526e-01  -5.0869348302063921e-01  -4.7220062482699909e-01  -4.3647435922995836e-01  -4.0144916088258592e-01  -3.6706882672968710e-01  -3.3328628735448435e-01  -3.0006405210458764e-01  -2.6737566919312117e-01  -2.3520906538100472e-01  -2.0357347111372959e-01  -1.7251236380813081e-01  -1.4212006563514143e-01  -1.1251778078879593e-01  -8.3704430357445167e-02  -5.5701842926736349e-02  -3.0671729313074936e-02  -7.7917522729950934e-03  1.4424935029056042e-02  3.6869015597593355e-02  6.1501093863758766e-02  8.9510148870010409e-02  1.2050426374841854e-01  1.5438123627631284e-01  1.9064462807595231e-01  2.2871516425453539e-01  2.6812096007235581e-01  3.0851955410976412e-01  3.4966997631505031e-01  3.9140191312979639e-01  4.3359263234814910e-01  4.7615146236550848e-01  5.1900965374023345e-01  5.6211374586991592e-01  6.0542116045789951e-01  6.4889721188774163e-01  6.9251303097453276e-01  7.3624408781807926e-01  7.8006911472038376e-01  8.2396930055757922e-01  8.6792767153277817e-01  9.1192860050990887e-01  9.5595740439668320e-01  1.0000000000000000e+00  -2.0000000000000000e+00  -1.8104281841691552e+00  -1.6555004633724206e+00  -1.5251549502905681e+00  -1.4129769893378772e+00  -1.3146633080751167e+00  -1.2272059209896493e+00  -1.1484302015973222e+00  -1.0767194288598605e+00  -1.0108431314408326e+00  -9.4984600502898964e-01  -8.9297365211103974e-01  -8.3962151865438095e-01  -7.8929890883716314e-01  -7.4160307527854863e-01  -6.9620020938780336e-01  -6.5281126233024367e-01  -6.1120121588248066e-01  -5.7117086278460005e-01  -5.3255044465852042e-01  -4.9519468918540194e-01  -4.5897892186583861e-01  -4.2379602350665729e-01  -3.8955407731832098e-01  -3.5617460881181456e-01  -3.2359137233058549e-01  -2.9174968011579705e-01  -2.6060630599417550e-01  -2.3013005922757215e-01  -2.0030333345311768e-01  -1.7112557878269066e-01  -1.4262145549087621e-01  -1.1486195043748347e-01  -8.8031120422632156e-02  -6.2553687136823161e-02  -3.8538533829549540e-02  -1.6769339258008754e-02  3.1011584135857821e-03  2.2725994577224899e-02  4.3106146781059985e-02  6.5130023302636939e-02  8.9840481828612970e-02  1.1728073712740510e-01  1.4730462121694529e-01  1.7973614868104401e-01  2.1425867165987600e-01  2.5049598457870426e-01  2.8809962957729429e-01  3.2678308904352632e-01  3.6632292372767905e-01  4.0654804210724399e-01  4.4732740914989899e-01  4.8855966793157840e-01  5.3016525030032413e-01  5.7208062079124244e-01  6.1425412986508687e-01  6.5664302154166254e-01  6.9921125355678304e-01  7.4192788700093193e-01  7.8476587609965232e-01  8.2770114044258891e-01  8.7071183721080669e-01  9.1377777472477750e-01  9.5687992455762505e-01  1.0000000000000000e+00  -2.0000000000000000e+00  -1.7805067324978427e+00  -1.6067124565323276e+00  -1.4640310827489533e+00  -1.3436223190259402e+00  -1.2397834323821466e+00  -1.1486523734921144e+00  -1.0675096937601862e+00  -9.9437843686014116e-01  -9.2778278564370620e-01  -8.6659614025794662e-01  -8.0994197868030082e-01  -7.5712713054220382e-01  -7.0759564993849122e-01  -6.6089617748876250e-01  -6.1665837310677618e-01  -5.7457559463326879e-01  -5.3439197077360645e-01  -4.9589262790573208e-01  -4.5889622399385310e-01  -4.2324920282109607e-01  -3.8882135825817243e-01  -3.5550242294891121e-01  -3.2319949015639898e-01  -2.9183515724914022e-01  -2.6134635369885917e-01  -2.3168388234813955e-01  -2.0281274147960179e-01  -1.7471330570358498e-01  -1.4738354068999213e-01  -1.2084291755346990e-01  -9.5139989300827593e-02  -7.0369772640303724e-02  -4.6661665722377905e-02  -2.5706430660653510e-02  -6.7960882023447100e-03  1.1138306291667115e-02  2.8777511178282526e-02  4.7489113264185479e-02  6.8149530991037668e-02  9.0704449003281451e-02  1.1545007302065104e-01  1.4246769659405176e-01  1.7169733531091350e-01  2.0300006557104194e-01  2.3615792530380345e-01  2.7091047282311137e-01  3.0699848461459084e-01  3.4419024875936788e-01  3.8229058744489552e-01  4.2113992242160142e-01  4.6060929421262420e-01  5.0059454991058216e-01  5.4101105873824251e-01  5.8178935712964286e-01  6.2287171666954266e-01  6.6420949085703862e-01  7.0576107471000515e-01  7.4749033052921277e-01  7.8936536223470477e-01  8.3135754790231742e-01  8.7344076214308264e-01  9.1559073662076973e-01  9.5778451910903972e-01  1.0000000000000000e+00  -2.0000000000000000e+00  -1.7524710573149000e+00  -1.5620931061808792e+00  -1.4091404306690434e+00  -1.2822161354219230e+00  -1.1742283427730951e+00  -1.0805077634403291e+00  -9.9784060319956702e-01  -9.2393424101171251e-01  -8.5710433074258852e-01  -7.9608262353871617e-01  -7.3989414231364659e-01  -6.8777598690797670e-01  -6.3912208409294557e-01  -5.9344464057851432e-01  -5.5034666043385005e-01  -5.0950198060343843e-01  -4.7064053418776552e-01  -4.3353732790537802e-01  -3.9800411379047324e-01  -3.6388305715771746e-01  -3.3104191879574191e-01  -2.9937042005421344e-01  -2.6877757375805417e-01  -2.3918986705086537e-01  -2.1055029891667440e-01  -1.8281841638988247e-01  -1.5597162618536048e-01  -1.3000813122451985e-01  -1.0495206593684149e-01  -8.0862863652432657e-02  -5.7856047723634535e-02  -3.6155337884295792e-02  -1.6875022246318556e-02  2.3890764746349981e-04  1.6722447562422298e-02  3.3450844915011303e-02  5.1048538403655697e-02  7.0303416310196890e-02  9.1298414915623669e-02  1.1408816869880017e-01  1.3878766465665801e-01  1.6544264091723751e-01  1.9401695786161502e-01  2.2440885298840682e-01  2.5646249116118464e-01  2.8998949679534719e-01  3.2479358729859004e-01  3.6068883393445894e-01  3.9750925487093408e-01  4.3511176592164180e-01  4.7337529536841427e-01  5.1219817875988338e-01  5.5149507761242134e-01  5.9119403231954359e-01  6.3123388882640252e-01  6.7156215050694468e-01  7.1213322389698652e-01  7.5290699817120887e-01  7.9384769440763625e-01  8.3492292678889268e-01  8.7610292683843638e-01  9.1735989050617917e-01  9.5866741525776444e-01  1.0000000000000000e+00  -2.0000000000000000e+00  -1.7262039522016654e+00  -1.5211944235624781e+00  -1.3596321705989509e+00  -1.2275084951334914e+00  -1.1163852466286022e+00  -1.0208436964205625e+00  -9.3722728713309866e-01  -8.6296923547113336e-01  -7.9620891728310672e-01  -7.3556124104237597e-01  -6.7997186015389455e-01  -6.2862290561515011e-01  -5.8086968072192635e-01  -5.3619700382697955e-01  -4.9418840480069037e-01  -4.5450396102997825e-01  -4.1686408511707718e-01  -3.8103750855320168e-01  -3.4683229179335767e-01  -3.1408907023918070e-01  -2.8267599798121312e-01  -2.5248502555182395e-01  -2.2342927897934245e-01  -1.9544143222992666e-01  -1.6847314237204550e-01  -1.4249592686314430e-01  -1.1750432710951771e-01  -9.3522707817314837e-02  -7.0618223638419769e-02  -4.8926461173476821e-02  -2.8760013903228972e-02  -1.0810312866432734e-02  5.2541759836301901e-03  2.0522164564509265e-02  3.6316691687268893e-02  5.3387081967117792e-02  7.1662381211132067e-02  9.1377598657322714e-02  1.1265254366245991e-01  1.3556214621963764e-01  1.6016977598994336e-01  1.8649824455662525e-01  2.1451900222990236e-01  2.4415589735978571e-01  2.7529368955718109e-01  3.0779143589850272e-01  3.4149753384996312e-01  3.7626224480894360e-01  4.1194583218274022e-01  4.4842259102561732e-01  4.8558194257950754e-01  5.2332779214811587e-01  5.6157704063201563e-01  6.0025780570970755e-01  6.3930765580958049e-01  6.7867199844735115e-01  7.1830267219978750e-01  7.5815674385100040e-01  7.9819549043573867e-01  8.3838353800718102e-01  8.7868812791559037e-01  9.1907848330774600e-01  9.5952525141583911e-01  1.0000000000000000e+00  -2.0000000000000000e+00  -1.7016046117817436e+00  -1.4836438631304436e+00  -1.3148221104543332e+00  -1.1785213368076619e+00  -1.0650198409579630e+00  -9.6821094944648611e-01  -8.8404438737316871e-01  -8.0971617841643406e-01  -7.4321686794284803e-01  -6.8306490396565278e-01  -6.2814180692695865e-01  -5.7758623750118965e-01  -5.3072364680659467e-01  -4.8701823215850348e-01  -4.4603933262464768e-01  -4.0743744332667703e-01  -3.7092680632809333e-01  -3.3627261112123225e-01  -3.0328150862613296e-01  -2.7179457492691128e-01  -2.4168214934929030e-01  -2.1284017144795997e-01  -1.8518778901916652e-01  -1.5866614637259457e-01  -1.3323849736190960e-01  -1.0889240315796550e-01  -8.5646192895524151e-02  -6.3564411086607903e-02  -4.2789607243407184e-02  -2.3710475278919719e-02  -6.7403346084867616e-03  8.5943539801799588e-03  2.3269088126383723e-02  3.8360030694315740e-02  5.4635072655026214e-02  7.2118410055058882e-02  9.0836305816432081e-02  1.1089205344550196e-01  1.3237201485725569e-01  1.5533809652734709e-01  1.7983104852685253e-01  2.0586155908941783e-01  2.3340490914158352e-01  2.6240204466365247e-01  2.9276493380925134e-01  3.2438502339151959e-01  3.5714286739381618e-01  3.9091677926861268e-01  4.2558923802546600e-01  4.6105082341857989e-01  4.9720209177588304e-01  5.3395400662105708e-01  5.7122748705781778e-01  6.0895249407769081e-01  6.4706693025486073e-01  6.8551551527309151e-01  7.2424872260381223e-01  7.6322181459726668e-01  8.0239398547713736e-01  8.4172760688850223e-01  8.8118756350899807e-01  9.2074066339337546e-01  9.6035510709784611e-01  1.0000000000000000e+00  -2.0000000000000000e+00  -1.6785831295102687e+00  -1.4491260944550732e+00  -1.2741510679887833e+00  -1.1344757042943268e+00  -1.0191685376607185e+00  -9.2149599764828860e-01  -8.3705906135881769e-01  -7.6284878162013525e-01  -6.9672993084585411e-01  -6.3714113090007451e-01  -5.8291191093629235e-01  -5.3314643923864191e-01  -4.8714704227772015e-01  -4.4436240598797222e-01  -4.0435161397577185e-01  -3.6675865632719412e-01  -3.3129405412267632e-01  -2.9772145026825081e-01  -2.6584776562808837e-01  -2.3551600281892140e-01  -2.0660010886587904e-01  -1.7900154714659469e-01  -1.5264741425957928e-01  -1.2749009356345303e-01  -1.0350868802779128e-01  -8.0713519955418450e-02  -5.9159189345966610e-02  -3.8979177514895144e-02  -2.0602069165217674e-02  -4.3150209326353918e-03  1.0472634534886111e-02  2.4725599080067120e-02  3.9368347573224133e-02  5.5013797431343735e-02  7.1745158183461361e-02  8.9615179781659449e-02  1.0867237855403539e-01  1.2898229445099738e-01  1.5060536579371386e-01  1.7358717650564254e-01  1.9795476250070185e-01  2.2371203413261007e-01  2.5083703058336138e-01  2.7928243834398919e-01  3.0897897762465232e-01  3.3984085646450823e-01  3.7177213306516987e-01  4.0467276684622505e-01  4.3844351723193115e-01  4.7298937284735304e-01  5.0822159448438797e-01  5.4405865550241161e-01  5.8042640690050806e-01  6.1725775328837684e-01  6.5449205585908055e-01  6.9207440978634216e-01  7.2995488834510347e-01  7.6808780645711705e-01  8.0643102998704141e-01  8.4494534056069226e-01  8.8359385583852412e-01  9.2234149965891177e-01  9.6115451358216986e-01  1.0000000000000000e+00  -2.0000000000000000e+00  -1.6570576187477808e+00  -1.4173707432702518e+00  -1.2371558623290817e+00  -1.0947417497870062e+00  -9.7806612300696627e-01  -8.7982686745956518e-01  -7.9531663662922536e-01  -7.2134929718960084e-01  -6.5568311983957650e-01  -5.9669046159754935e-01  -5.4315855641887800e-01  -4.9416412394494930e-01  -4.4899156343907770e-01  -4.0707794471904468e-01  -3.6797506334319213e-01  -3.3132270743924003e-01  -2.9682950716760420e-01  -2.6425906132741517e-01  -2.3341985469962750e-01  -2.0415801290194566e-01  -1.7635231964297188e-01  -1.4991123287104161e-01  -1.2477194364098330e-01  -1.0090184042373097e-01  -7.8303070556872370e-02  -5.7022408555875918e-02  -3.7178296741613708e-02  -1.9171446107718291e-02  -3.2971100591344671e-03  1.1093347844625383e-02  2.5004507203886663e-02  3.9298252428393562e-02  5.4464905655101994e-02  7.0581653274373657e-02  8.7716582865816073e-02  1.0592477233408218e-01  1.2525573416705268e-01  1.4575938001073821e-01  1.6747997736095990e-01  1.9045048120080729e-01  2.1468879083770245e-01  2.4019478435695907e-01  2.6694874071526281e-01  2.9491170050429039e-01  3.2402768188086056e-01  3.5422729177669093e-01  3.8543204155612992e-01  4.1755863781918678e-01  4.5052269120868110e-01  4.8424155625451276e-01  5.1863625781190403e-01  5.5363261400369368e-01  5.8916173175342668e-01  6.2516005631622751e-01  6.6156913010674245e-01  6.9833517966809333e-01  7.3540861453314255e-01  7.7274349289905575e-01  8.1029698745322021e-01  8.4802886952870082e-01  8.8590101962549417e-01  9.2387696582157752e-01  9.6192144757192188e-01  1.0000000000000000e+00  -2.0000000000000000e+00  -1.6369526237869896e+00  -1.3881437268448165e+00  -1.2034485168654103e+00  -1.0588035173435690e+00  -9.4109587732638977e-01  -8.4250948262651904e-01  -7.5806460400855868e-01  -6.8442176512046660e-01  -6.1924882759783961e-01  -5.6086296082745790e-01  -5.0801687817252161e-01  -4.5976540934409721e-01  -4.1537907210913400e-01  -3.7428631765908155e-01  -3.3603391791996973e-01  -3.0025921095351416e-01  -2.6667033693074049e-01  -2.3503202753432592e-01  -2.0515539533306301e-01  -1.7689075051947808e-01  -1.5012290620571395e-01  -1.2476885956964995e-01  -1.0077834784365422e-01  -7.8138863349492285e-02  -5.6888425358481286e-02  -3.7141676450898407e-02  -1.9228265220804952e-02  -3.5218456026903252e-03  1.0619667179547100e-02  2.4245631161327427e-02  3.8229738368223277e-02  5.2997997774518434e-02  6.8611369344416667e-02  8.5131327145232819e-02  1.0261474767134704e-01  1.2111159252180052e-01  1.4066640576935499e-01  1.6131951406394293e-01  1.8310468243858041e-01  2.0604598009892428e-01  2.3015513529234169e-01  2.5542957174226094e-01  2.8185144741644058e-01  3.0938794107704892e-01  3.3799275761780873e-01  3.6760858720526485e-01  3.9817010356347216e-01  4.2960705166571111e-01  4.6184705352909372e-01  4.9481790315011298e-01  5.2844926650502189e-01  5.6267381094703217e-01  5.9742784979327723e-01  6.3265161011636406e-01  6.6828922858356787e-01  7.0428856424614616e-01  7.4060089722031774e-01  7.7718056315274309e-01  8.1398455739808162e-01  8.5097213047539688e-01  8.8810438731317465e-01  9.2534389642998249e-01  9.6265431088393971e-01  1.0000000000000000e+00  -2.0000000000000000e+00  -1.6181981948091189e+00  -1.3612408759552801e+00  -1.1727009779349729e+00  -1.0262335765757722e+00  -9.0775435465903509e-01  -8.0898349294668614e-01  -7.2470064588852112e-01  -6.5143342547020466e-01  -5.8677274223130649e-01  -5.2898965743270543e-01  -4.7680862858744155e-01  -4.2926700927012201e-01  -3.8562460814419453e-01  -3.4530358502843900e-01  -3.0784743623923122e-01  -2.7289240490363870e-01  -2.4014724354887285e-01  -2.0937878485997052e-01  -1.8040172164730398e-01  -1.5307162509507666e-01  -1.2728071834389040e-01  -1.0295646913852037e-01  -8.0064141451882925e-02  -5.8617591197380046e-02  -3.8712783647397268e-02  -2.0640390111686956e-02  -4.8868994792606044e-03  9.1524293226391846e-03  2.2558575414067441e-02  3.6255088822268272e-02 