<?xml version="1.0"?>
<VTKFile type="UnstructuredGrid"  version="0.1"  >
<UnstructuredGrid>
<Piece  NumberOfPoints="441" NumberOfCells="800">
<Points>
<DataArray  type="Float64"  NumberOfComponents="3"  format="ascii">0 0 0  0.05 0 0  0.1 0 0  0.15 0 0  0.2 0 0  0.25 0 0  0.3 0 0  0.35 0 0  0.4 0 0  0.45 0 0  0.5 0 0  0.55 0 0  0.6 0 0  0.65 0 0  0.7 0 0  0.75 0 0  0.8 0 0  0.85 0 0  0.9 0 0  0.95 0 0  1 0 0  0 0.05 0  0.05 0.05 0  0.1 0.05 0  0.15 0.05 0  0.2 0.05 0  0.25 0.05 0  0.3 0.05 0  0.35 0.05 0  0.4 0.05 0  0.45 0.05 0  0.5 0.05 0  0.55 0.05 0  0.6 0.05 0  0.65 0.05 0  0.7 0.05 0  0.75 0.05 0  0.8 0.05 0  0.85 0.05 0  0.9 0.05 0  0.95 0.05 0  1 0.05 0  0 0.1 0  0.05 0.1 0  0.1 0.1 0  0.15 0.1 0  0.2 0.1 0  0.25 0.1 0  0.3 0.1 0  0.35 0.1 0  0.4 0.1 0  0.45 0.1 0  0.5 0.1 0  0.55 0.1 0  0.6 0.1 0  0.65 0.1 0  0.7 0.1 0  0.75 0.1 0  0.8 0.1 0  0.85 0.1 0  0.9 0.1 0  0.95 0.1 0  1 0.1 0  0 0.15 0  0.05 0.15 0  0.1 0.15 0  0.15 0.15 0  0.2 0.15 0  0.25 0.15 0  0.3 0.15 0  0.35 0.15 0  0.4 0.15 0  0.45 0.15 0  0.5 0.15 0  0.55 0.15 0  0.6 0.15 0  0.65 0.15 0  0.7 0.15 0  0.75 0.15 0  0.8 0.15 0  0.85 0.15 0  0.9 0.15 0  0.95 0.15 0  1 0.15 0  0 0.2 0  0.05 0.2 0  0.1 0.2 0  0.15 0.2 0  0.2 0.2 0  0.25 0.2 0  0.3 0.2 0  0.35 0.2 0  0.4 0.2 0  0.45 0.2 0  0.5 0.2 0  0.55 0.2 0  0.6 0.2 0  0.65 0.2 0  0.7 0.2 0  0.75 0.2 0  0.8 0.2 0  0.85 0.2 0  0.9 0.2 0  0.95 0.2 0  1 0.2 0  0 0.25 0  0.05 0.25 0  0.1 0.25 0  0.15 0.25 0  0.2 0.25 0  0.25 0.25 0  0.3 0.25 0  0.35 0.25 0  0.4 0.25 0  0.45 0.25 0  0.5 0.25 0  0.55 0.25 0  0.6 0.25 0  0.65 0.25 0  0.7 0.25 0  0.75 0.25 0  0.8 0.25 0  0.85 0.25 0  0.9 0.25 0  0.95 0.25 0  1 0.25 0  0 0.3 0  0.05 0.3 0  0.1 0.3 0  0.15 0.3 0  0.2 0.3 0  0.25 0.3 0  0.3 0.3 0  0.35 0.3 0  0.4 0.3 0  0.45 0.3 0  0.5 0.3 0  0.55 0.3 0  0.6 0.3 0  0.65 0.3 0  0.7 0.3 0  0.75 0.3 0  0.8 0.3 0  0.85 0.3 0  0.9 0.3 0  0.95 0.3 0  1 0.3 0  0 0.35 0  0.05 0.35 0  0.1 0.35 0  0.15 0.35 0  0.2 0.35 0  0.25 0.35 0  0.3 0.35 0  0.35 0.35 0  0.4 0.35 0  0.45 0.35 0  0.5 0.35 0  0.55 0.35 0  0.6 0.35 0  0.65 0.35 0  0.7 0.35 0  0.75 0.35 0  0.8 0.35 0  0.85 0.35 0  0.9 0.35 0  0.95 0.35 0  1 0.35 0  0 0.4 0  0.05 0.4 0  0.1 0.4 0  0.15 0.4 0  0.2 0.4 0  0.25 0.4 0  0.3 0.4 0  0.35 0.4 0  0.4 0.4 0  0.45 0.4 0  0.5 0.4 0  0.55 0.4 0  0.6 0.4 0  0.65 0.4 0  0.7 0.4 0  0.75 0.4 0  0.8 0.4 0  0.85 0.4 0  0.9 0.4 0  0.95 0.4 0  1 0.4 0  0 0.45 0  0.05 0.45 0  0.1 0.45 0  0.15 0.45 0  0.2 0.45 0  0.25 0.45 0  0.3 0.45 0  0.35 0.45 0  0.4 0.45 0  0.45 0.45 0  0.5 0.45 0  0.55 0.45 0  0.6 0.45 0  0.65 0.45 0  0.7 0.45 0  0.75 0.45 0  0.8 0.45 0  0.85 0.45 0  0.9 0.45 0  0.95 0.45 0  1 0.45 0  0 0.5 0  0.05 0.5 0  0.1 0.5 0  0.15 0.5 0  0.2 0.5 0  0.25 0.5 0  0.3 0.5 0  0.35 0.5 0  0.4 0.5 0  0.45 0.5 0  0.5 0.5 0  0.55 0.5 0  0.6 0.5 0  0.65 0.5 0  0.7 0.5 0  0.75 0.5 0  0.8 0.5 0  0.85 0.5 0  0.9 0.5 0  0.95 0.5 0  1 0.5 0  0 0.55 0  0.05 0.55 0  0.1 0.55 0  0.15 0.55 0  0.2 0.55 0  0.25 0.55 0  0.3 0.55 0  0.35 0.55 0  0.4 0.55 0  0.45 0.55 0  0.5 0.55 0  0.55 0.55 0  0.6 0.55 0  0.65 0.55 0  0.7 0.55 0  0.75 0.55 0  0.8 0.55 0  0.85 0.55 0  0.9 0.55 0  0.95 0.55 0  1 0.55 0  0 0.6 0  0.05 0.6 0  0.1 0.6 0  0.15 0.6 0  0.2 0.6 0  0.25 0.6 0  0.3 0.6 0  0.35 0.6 0  0.4 0.6 0  0.45 0.6 0  0.5 0.6 0  0.55 0.6 0  0.6 0.6 0  0.65 0.6 0  0.7 0.6 0  0.75 0.6 0  0.8 0.6 0  0.85 0.6 0  0.9 0.6 0  0.95 0.6 0  1 0.6 0  0 0.65 0  0.05 0.65 0  0.1 0.65 0  0.15 0.65 0  0.2 0.65 0  0.25 0.65 0  0.3 0.65 0  0.35 0.65 0  0.4 0.65 0  0.45 0.65 0  0.5 0.65 0  0.55 0.65 0  0.6 0.65 0  0.65 0.65 0  0.7 0.65 0  0.75 0.65 0  0.8 0.65 0  0.85 0.65 0  0.9 0.65 0  0.95 0.65 0  1 0.65 0  0 0.7 0  0.05 0.7 0  0.1 0.7 0  0.15 0.7 0  0.2 0.7 0  0.25 0.7 0  0.3 0.7 0  0.35 0.7 0  0.4 0.7 0  0.45 0.7 0  0.5 0.7 0  0.55 0.7 0  0.6 0.7 0  0.65 0.7 0  0.7 0.7 0  0.75 0.7 0  0.8 0.7 0  0.85 0.7 0  0.9 0.7 0  0.95 0.7 0  1 0.7 0  0 0.75 0  0.05 0.75 0  0.1 0.75 0  0.15 0.75 0  0.2 0.75 0  0.25 0.75 0  0.3 0.75 0  0.35 0.75 0  0.4 0.75 0  0.45 0.75 0  0.5 0.75 0  0.55 0.75 0  0.6 0.75 0  0.65 0.75 0  0.7 0.75 0  0.75 0.75 0  0.8 0.75 0  0.85 0.75 0  0.9 0.75 0  0.95 0.75 0  1 0.75 0  0 0.8 0  0.05 0.8 0  0.1 0.8 0  0.15 0.8 0  0.2 0.8 0  0.25 0.8 0  0.3 0.8 0  0.35 0.8 0  0.4 0.8 0  0.45 0.8 0  0.5 0.8 0  0.55 0.8 0  0.6 0.8 0  0.65 0.8 0  0.7 0.8 0  0.75 0.8 0  0.8 0.8 0  0.85 0.8 0  0.9 0.8 0  0.95 0.8 0  1 0.8 0  0 0.85 0  0.05 0.85 0  0.1 0.85 0  0.15 0.85 0  0.2 0.85 0  0.25 0.85 0  0.3 0.85 0  0.35 0.85 0  0.4 0.85 0  0.45 0.85 0  0.5 0.85 0  0.55 0.85 0  0.6 0.85 0  0.65 0.85 0  0.7 0.85 0  0.75 0.85 0  0.8 0.85 0  0.85 0.85 0  0.9 0.85 0  0.95 0.85 0  1 0.85 0  0 0.9 0  0.05 0.9 0  0.1 0.9 0  0.15 0.9 0  0.2 0.9 0  0.25 0.9 0  0.3 0.9 0  0.35 0.9 0  0.4 0.9 0  0.45 0.9 0  0.5 0.9 0  0.55 0.9 0  0.6 0.9 0  0.65 0.9 0  0.7 0.9 0  0.75 0.9 0  0.8 0.9 0  0.85 0.9 0  0.9 0.9 0  0.95 0.9 0  1 0.9 0  0 0.95 0  0.05 0.95 0  0.1 0.95 0  0.15 0.95 0  0.2 0.95 0  0.25 0.95 0  0.3 0.95 0  0.35 0.95 0  0.4 0.95 0  0.45 0.95 0  0.5 0.95 0  0.55 0.95 0  0.6 0.95 0  0.65 0.95 0  0.7 0.95 0  0.75 0.95 0  0.8 0.95 0  0.85 0.95 0  0.9 0.95 0  0.95 0.95 0  1 0.95 0  0 1 0  0.05 1 0  0.1 1 0  0.15 1 0  0.2 1 0  0.25 1 0  0.3 1 0  0.35 1 0  0.4 1 0  0.45 1 0  0.5 1 0  0.55 1 0  0.6 1 0  0.65 1 0  0.7 1 0  0.75 1 0  0.8 1 0  0.85 1 0  0.9 1 0  0.95 1 0  1 1 0  </DataArray>
</Points>
<Cells>
[...]
<PointData  Scalars="f_6"> 
<DataArray  type="Float64"  Name="f_6"  format="ascii">-2.0000000000000000e+00  -1.8499999999999999e+00  -1.7000000000000000e+00  -1.5500000000000000e+00  -1.4000000000000001e+00  -1.2500000000000000e+00  -1.0999999999999999e+00  -9.5000000000000007e-01  -7.9999999999999993e-01  -6.5000000000000013e-01  -5.0000000000000000e-01  -3.4999999999999987e-01  -2.0000000000000007e-01  -4.9999999999999940e-02  9.9999999999999867e-02  2.5000000000000000e-01  4.0000000000000013e-01  5.4999999999999993e-01  7.0000000000000007e-01  8.4999999999999987e-01  1.0000000000000000e+00  -2.0000000000000000e+00  -1.4993206762009852e+00  -1.2160728017024909e+00  -1.0136216308243899e+00  -8.5156508273477227e-01  -7.0953477390225805e-01  -5.7735267054193729e-01  -4.5039674031522975e-01  -3.2713525776602692e-01  -2.0830865073199342e-01  -9.4373417103816512e-02  1.3200824786575574e-02  1.1054026076896245e-01  1.8986702417096696e-01  2.7473691239855280e-01  3.7544222374441683e-01  4.9111454680544853e-01  6.1410871891668639e-01  7.4102424663312183e-01  8.7004552751194986e-01  1.0000000000000000e+00  -2.0000000000000000e+00  -1.2522706602523106e+00  -8.7482758960743834e-01  -6.2884297802662703e-01  -4.5287164057609230e-01  -3.1494338636860097e-01  -1.9700715246788406e-01  -9.0337313466823485e-02  8.3755972726471117e-03  9.8971366571622907e-02  1.7947762003757289e-01  2.5034615345841887e-01  3.1202536769057909e-01  3.5923062805333855e-01  4.1399751722760730e-01  4.8591743577366608e-01  5.7490724456069009e-01  6.7429608222817561e-01  7.7994274010385045e-01  8.8915786341467817e-01  1.0000000000000000e+00  -2.0000000000000000e+00  -1.0624341941662965e+00  -6.0833426194874018e-01  -3.3258765453165157e-01  -1.5069311286795370e-01  -1.9743377772634945e-02  8.3624701689862718e-02  1.7101947824199332e-01  2.4737612707547132e-01  3.1402411033350713e-01  3.7090974538563692e-01  4.1874961936479616e-01  4.5858083550158579e-01  4.8876849208725376e-01  5.2633383800260569e-01  5.7932275756195051e-01  6.4830091343546992e-01  7.2822562533147583e-01  8.1529276813942675e-01  9.0664318604291250e-01  1.0000000000000000e+00  -2.0000000000000000e+00  -9.1381694498985211e-01  -4.0145557187860992e-01  -1.0452915035063186e-01  7.8630365484745487e-02  2.0109044091578565e-01  2.9071417441136332e-01  3.6148909117292155e-01  4.1990983192104053e-01  4.6870738053999889e-01  5.0913582281833825e-01  5.4231403956807533e-01  5.6921477172754320e-01  5.8968710301730931e-01  6.1666212276977339e-01  6.5673884303606023e-01  7.1074802628776401e-01  7.7501273752283162e-01  8.4635952107946810e-01  9.2212211261754529e-01  1.0000000000000000e+00  -2.0000000000000000e+00  -7.9757915782593503e-01  -2.4136261936514183e-01  7.0209559992735968e-02  2.5253989195641102e-01  3.6668769223160708e-01  4.4443976602156815e-01  5.0185200402483354e-01  5.4672477571822575e-01  5.8277583688681889e-01  6.1194612795257952e-01  6.3554186447606420e-01  6.5450558096858003e-01  6.6911603581639756e-01  6.8923260699477296e-01  7.2022246552475311e-01  7.6293961115669451e-01  8.1471777739261830e-01  8.7301046603806920e-01  9.3548574334780110e-01  1.0000000000000000e+00  -2.0000000000000000e+00  -7.0699872962293187e-01  -1.1771976762167023e-01  2.0398392475626362e-01  3.8461563349061495e-01  4.9147553125224397e-01  5.5958475511691719e-01  6.0670632804339653e-01  6.4163188169916852e-01  6.6869758863140571e-01  6.9017096823218937e-01  7.0740723326626542e-01  7.2128394858252787e-01  7.3213367792997375e-01  7.4758431402533310e-01  7.7197880091148507e-01  8.0607017542164205e-01  8.4790829485287800e-01  8.9547882233238985e-01  9.4681039473558981e-01  1.0000000000000000e+00  -2.0000000000000000e+00  -6.3655266066159655e-01  -2.2257722501886807e-02  3.0655200776835667e-01  4.8528976439484883e-01  5.8615098917579433e-01  6.4672765390691578e-01  6.8612064877196133e-01  7.1383334738903426e-01  7.3457017996358287e-01  7.5073676477109530e-01  7.6366353134769660e-01  7.7413587968084863e-01  7.8243640827329475e-01  7.9456801897629092e-01  8.1403824867421282e-01  8.4145399476551097e-01  8.7536640426486167e-01  9.1418613370302304e-01  9.5627701326216852e-01  1.0000000000000000e+00  -2.0000000000000000e+00  -5.8175737611246903e-01  5.1553825342459308e-02  3.8544410552459352e-01  5.6242834074697068e-01  6.5853938895676634e-01  7.1337003905641727e-01  7.4703526928110719e-01  7.6953488348814059e-01  7.8578667954223336e-01  7.9824055605373090e-01  8.0817186690430109e-01  8.1627294095449465e-01  8.2276500308484823e-01  8.3244651404087477e-01  8.4815218004356441e-01  8.7034115070132756e-01  8.9791719373803480e-01  9.2962229495267190e-01  9.6411152461006167e-01  1.0000000000000000e+00  -2.0000000000000000e+00  -5.3905412778462236e-01  1.0878742718575816e-01  4.4638258056635588e-01  6.2188354343134267e-01  7.1432181631554736e-01  7.6482779551079194e-01  7.9427082993979903e-01  8.1299257353314336e-01  8.2603237046840072e-01  8.3584127935458408e-01  8.4363454030333562e-01  8.5002554147309428e-01  8.5518795868536246e-01  8.6300826077048198e-01  8.7578280675784270e-01  8.9384123425819961e-01  9.1633892503327852e-01  9.4227432775956865e-01  9.7054679022540613e-01  1.0000000000000000e+00  -2.0000000000000000e+00  -5.0567194658917070e-01  1.5332580188177081e-01  4.9366767685503049e-01  6.6797446267408311e-01  7.5761279026742767e-01  8.0488502386370020e-01  8.3121611154628694e-01  8.4718245243322665e-01  8.5789206536094098e-01  8.6578040429548853e-01  8.7200943843289225e-01  8.7713178441830286e-01  8.8129021262469154e-01  8.8766719149412143e-01  8.9812955195912569e-01  9.1290205454034923e-01  9.3132294437731133e-01  9.5258930082691817e-01  9.7580130853199443e-01  1.0000000000000000e+00  -2.0000000000000000e+00  -4.7948452112581236e-01  1.8810647768806160e-01  5.3050539026420263e-01  7.0387606595676677e-01  7.9139659526341344e-01  8.3625647403347225e-01  8.6028745839504195e-01  8.7422770143466177e-01  8.8322423894264890e-01  8.8969306663187475e-01  8.9475361789454066e-01  8.9891437087299231e-01  9.0230047622617626e-01  9.0754288163296182e-01  9.1616615504419052e-01  9.2831448756676094e-01  9.4346149710869931e-01  9.6095862263879850e-01  9.8006914307565329e-01  1.0000000000000000e+00  -2.0000000000000000e+00  -4.5887873225013620e-01  2.1533039328537670e-01  5.5927150351565036e-01  7.3191868156038242e-01  8.1784593396770466e-01  8.6090814384379499e-01  8.8323336351737858e-01  8.9567215594793526e-01  9.0339450706511448e-01  9.0879885145426031e-01  9.1297279265938647e-01  9.1639395471901175e-01  9.1917903610984819e-01  9.2352287067091210e-01  9.3067769901791264e-01  9.4072824357380447e-01  9.5324993385192647e-01  9.6771454954392477e-01  9.8351664113182091e-01  1.0000000000000000e+00  -2.0000000000000000e+00  -4.4264506331311376e-01  2.3662847935322054e-01  5.8171500582058244e-01  7.5381087891344178e-01  8.3854966647410034e-01  8.8027729156656043e-01  9.0133631987298679e-01  9.1265686054857542e-01  9.1942383605449762e-01  9.2402222874952988e-01  9.2751699879198835e-01  9.3036483013647953e-01  9.3267977532573842e-01  9.3631059696549612e-01  9.4229352678274358e-01  9.5067085385861827e-01  9.6109544518127787e-01  9.7313300055315388e-01  9.8628287190770514e-01  1.0000000000000000e+00  -2.0000000000000000e+00  -4.2989515557781099e-01  2.5318573007770068e-01  5.9910890201335076e-01  7.7080167647888009e-01  8.5467368509290054e-01  8.9542296254541032e-01  9.1554720749699070e-01  9.2603541327950445e-01  9.3208454218747372e-01  9.3607089620863226e-01  9.3904417538373719e-01  9.4144725945509733e-01  9.4339495224179692e-01  9.4646218932882886e-01  9.5151495728894742e-01  9.5856619989664782e-01  9.6732799246141299e-01  9.7743913557970818e-01  9.8848184594584620e-01  1.0000000000000000e+00  -2.0000000000000000e+00  -4.2001060321507044e-01  2.6582556276569297e-01  6.1235918699083980e-01  7.8379801120161108e-01  8.6707463708278698e-01  9.0712941246929590e-01  9.2657554153562516e-01  9.3645039313933121e-01  9.4196376826448480e-01  9.4548815285789956e-01  9.4806374891706502e-01  9.5012463235483180e-01  9.5178808383464142e-01  9.5441470179282650e-01  9.5873791314756884e-01  9.6475099597761294e-01  9.7221118918801863e-01  9.8081370335841989e-01  9.9020537629597138e-01  1.0000000000000000e+00  -2.0000000000000000e+00  -4.1262655888694744e-01  2.7506308266847418e-01  6.2208705831606170e-01  7.9345325292234159e-01  8.7638216325016316e-01  9.1597811712981192e-01  9.3495077382773617e-01  9.4438468693447020e-01  9.4950616080492001e-01  9.5268859283715068e-01  9.5496709960325044e-01  9.5677028969157896e-01  9.5821835455036886e-01  9.6050774992660870e-01  9.6427099753088896e-01  9.6948868167821578e-01  9.7595206495462894e-01  9.8339911236998134e-01  9.9152595587961967e-01  1.0000000000000000e+00  -2.0000000000000000e+00  -4.0762963625069915e-01  2.8116011802639224e-01  6.2871047379002731e-01  8.0024342136474858e-01  8.8306174966867756e-01  9.2239895625749369e-01  9.4106435824088885e-01  9.5019624819744908e-01  9.5504275115853199e-01  9.5798247726639429e-01  9.6004879985165126e-01  9.6166686984362915e-01  9.6295883143513483e-01  9.6500002013917519e-01  9.6834964537116208e-01  9.7298066824973317e-01  9.7870927658229956e-01  9.8530472528725666e-01  9.9249933485252673e-01  1.0000000000000000e+00  -2.0000000000000000e+00  -4.0494622019845850e-01  2.8429940149986399e-01  6.3257092839819939e-01  8.0454652287548900e-01  8.8746547883321059e-01  9.2670671256658332e-01  9.4519850767052527e-01  9.5414160872099985e-01  9.5881034683320354e-01  9.6159185627084798e-01  9.6352053787630698e-01  9.6501954676552437e-01  9.6621022853538585e-01  9.6808178195768224e-01  9.7114689556485112e-01  9.7537506936725582e-01  9.8059964783758014e-01  9.8661117734421977e-01  9.9316665824323080e-01  1.0000000000000000e+00  -2.0000000000000000e+00  -4.0259166619699993e-01  2.8517163121395589e-01  6.3414468262460200e-01  8.0672208248924504e-01  8.8986812696242901e-01  9.2912433356207513e-01  9.4754490012228743e-01  9.5639171286909419e-01  9.6096457970802485e-01  9.6366051848757150e-01  9.6551800090096118e-01  9.6696210302717667e-01  9.6811245777538535e-01  9.6988423194682816e-01  9.7278108556330400e-01  9.7677306581685930e-01  9.8170306805654572e-01  9.8737367800881182e-01  9.9355612077617683e-01  1.0000000000000000e+00  -2.0000000000000000e+00  -3.8385137696369576e-01  2.8583505068732989e-01  6.3415655232421508e-01  8.0712341569718327e-01  8.9046996577877124e-01  9.2979030061786938e-01  9.4821500548197291e-01  9.5704296327083072e-01  9.6159015894010458e-01  9.6426122333851427e-01  9.6610063606733909e-01  9.6754582803884037e-01  9.6876071290756960e-01  9.7048538429176900e-01  9.7332014892467722e-01  9.7723304028033198e-01  9.8206588056293231e-01  9.8762434585830527e-01  9.9368414685266493e-01  1.0000000000000000e+00  </DataArray> 
</PointData> 
</Piece>
</UnstructuredGrid>
</VTKFile>