<?xml version="1.0"?>
<VTKFile type="UnstructuredGrid"  version="0.1"  >
<UnstructuredGrid>
<Piece  NumberOfPoints="4225" NumberOfCells="8192">
<Points>
<DataArray  type="Float64"  NumberOfComponents="3"  format="ascii">0 0 0  0.015625 0 0  0.03125 0 0  0.046875 0 0  0.0625 0 0  0.078125 0 0  0.09375 0 0  0.109375 0 0  0.125 0 0  0.140625 0 0  0.15625 0 0  0.171875 0 0  0.1875 0 0  0.203125 0 0  0.21875 0 0  0.234375 0 0  0.25 0 0  0.265625 0 0  0.28125 0 0  0.296875 0 0  0.3125 0 0  0.328125 0 0  0.34375 0 0  0.359375 0 0  0.375 0 0  0.390625 0 0  0.40625 0 0  0.421875 0 0  0.4375 0 0  0.453125 0 0  0.46875 0 0  0.484375 0 0  0.5 0 0  0.515625 0 0  0.53125 0 0  0.546875 0 0  0.5625 0 0  0.578125 0 0  0.59375 0 0  0.609375 0 0  0.625 0 0  0.640625 0 0  0.65625 0 0  0.671875 0 0  0.6875 0 0  0.703125 0 0  0.71875 0 0  0.734375 0 0  0.75 0 0  0.765625 0 0  0.78125 0 0  0.796875 0 0  0.8125 0 0  0.828125 0 0  0.84375 0 0  0.859375 0 0  0.875 0 0  0.890625 0 0  0.90625 0 0  0.921875 0 0  0.9375 0 0  0.953125 0 0  0.96875 0 0  0.984375 0 0  1 0 0  0 0.015625 0  0.015625 0.015625 0  0.03125 0.015625 0  0.046875 0.015625 0  0.0625 0.015625 0  0.078125 0.015625 0  0.09375 0.015625 0  0.109375 0.015625 0  0.125 0.015625 0  0.140625 0.015625 0  0.15625 0.015625 0  0.171875 0.015625 0  0.1875 0.015625 0  0.203125 0.015625 0  0.21875 0.015625 0  0.234375 0.015625 0  0.25 0.015625 0  0.265625 0.015625 0  0.28125 0.015625 0  0.296875 0.015625 0  0.3125 0.015625 0  0.328125 0.015625 0  0.34375 0.015625 0  0.359375 0.015625 0  0.375 0.015625 0  0.390625 0.015625 0  0.40625 0.015625 0  0.421875 0.015625 0  0.4375 0.015625 0  0.453125 0.015625 0  0.46875 0.015625 0  0.484375 0.015625 0  0.5 0.015625 0  0.515625 0.015625 0  0.53125 0.015625 0  0.546875 0.015625 0  0.5625 0.015625 0  0.578125 0.015625 0  0.59375 0.015625 0  0.609375 0.015625 0  0.625 0.015625 0  0.640625 0.015625 0  0.65625 0.015625 0  0.671875 0.015625 0  0.6875 0.015625 0  0.703125 0.015625 0  0.71875 0.015625 0  0.734375 0.015625 0  0.75 0.015625 0  0.765625 0.015625 0  0.78125 0.015625 0  0.796875 0.015625 0  0.8125 0.015625 0  0.828125 0.015625 0  0.84375 0.015625 0  0.859375 0.015625 0  0.875 0.015625 0  0.890625 0.015625 0  0.90625 0.015625 0  0.921875 0.015625 0  0.9375 0.015625 0  0.953125 0.015625 0  0.96875 0.015625 0  0.984375 0.015625 0  1 0.015625 0  0 0.03125 0  0.015625 0.03125 0  0.03125 0.03125 0  0.046875 0.03125 0  0.0625 0.03125 0  0.078125 0.03125 0  0.09375 0.03125 0  0.109375 0.03125 0  0.125 0.03125 0  0.140625 0.03125 0  0.15625 0.03125 0  0.171875 0.03125 0  0.1875 0.03125 0  0.203125 0.03125 0  0.21875 0.03125 0  0.234375 0.03125 0  0.25 0.03125 0  0.265625 0.03125 0  0.28125 0.03125 0  0.296875 0.03125 0  0.3125 0.03125 0  0.328125 0.03125 0  0.34375 0.03125 0  0.359375 0.03125 0  0.375 0.03125 0  0.390625 0.03125 0  0.40625 0.03125 0  0.421875 0.03125 0  0.4375 0.03125 0  0.453125 0.03125 0  0.46875 0.03125 0  0.484375 0.03125 0  0.5 0.03125 0  0.515625 0.03125 0  0.53125 0.03125 0  0.546875 0.03125 0  0.5625 0.03125 0  0.578125 0.03125 0  0.59375 0.03125 0  0.609375 0.03125 0  0.625 0.03125 0  0.640625 0.03125 0  0.65625 0.03125 0  0.671875 0.03125 0  0.6875 0.03125 0  0.703125 0.03125 0  0.71875 0.03125 0  0.734375 0.03125 0  0.75 0.03125 0  0.765625 0.03125 0  0.78125 0.03125 0  0.796875 0.03125 0  0.8125 0.03125 0  0.828125 0.03125 0  0.84375 0.03125 0  0.859375 0.03125 0  0.875 0.03125 0  0.890625 0.03125 0  0.90625 0.03125 0  0.921875 0.03125 0  0.9375 0.03125 0  0.953125 0.03125 0  0.96875 0.03125 0  0.984375 0.03125 0  1 0.03125 0  0 0.046875 0  0.015625 0.046875 0  0.03125 0.046875 0  0.046875 0.046875 0  0.0625 0.046875 0  0.078125 0.046875 0  0.09375 0.046875 0  0.109375 0.046875 0  0.125 0.046875 0  0.140625 0.046875 0  0.15625 0.046875 0  0.171875 0.046875 0  0.1875 0.046875 0  0.203125 0.046875 0  0.21875 0.046875 0  0.234375 0.046875 0  0.25 0.046875 0  0.265625 0.046875 0  0.28125 0.046875 0  0.296875 0.046875 0  0.3125 0.046875 0  0.328125 0.046875 0  0.34375 0.046875 0  0.359375 0.046875 0  0.375 0.046875 0  0.390625 0.046875 0  0.40625 0.046875 0  0.421875 0.046875 0  0.4375 0.046875 0  0.453125 0.046875 0  0.46875 0.046875 0  0.484375 0.046875 0  0.5 0.046875 0  0.515625 0.046875 0  0.53125 0.046875 0  0.546875 0.046875 0  0.5625 0.046875 0  0.578125 0.046875 0  0.59375 0.046875 0  0.609375 0.046875 0  0.625 0.046875 0  0.640625 0.046875 0  0.65625 0.046875 0  0.671875 0.046875 0  0.6875 0.046875 0  0.703125 0.046875 0  0.71875 0.046875 0  0.734375 0.046875 0  0.75 0.046875 0  0.765625 0.046875 0  0.78125 0.046875 0  0.796875 0.046875 0  0.8125 0.046875 0  0.828125 0.046875 0  0.84375 0.046875 0  0.859375 0.046875 0  0.875 0.046875 0  0.890625 0.046875 0  0.90625 0.046875 0  0.921875 0.046875 0  0.9375 0.046875 0  0.953125 0.046875 0  0.96875 0.046875 0  0.984375 0.046875 0  1 0.046875 0  0 0.0625 0  0.015625 0.0625 0  0.03125 0.0625 0  0.046875 0.0625 0  0.0625 0.0625 0  0.078125 0.0625 0  0.09375 0.0625 0  0.109375 0.0625 0  0.125 0.0625 0  0.140625 0.0625 0  0.15625 0.0625 0  0.171875 0.0625 0  0.1875 0.0625 0  0.203125 0.0625 0  0.21875 0.0625 0  0.234375 0.0625 0  0.25 0.0625 0  0.265625 0.0625 0  0.28125 0.0625 0  0.296875 0.0625 0  0.3125 0.0625 0  0.328125 0.0625 0  0.34375 0.0625 0  0.359375 0.0625 0  0.375 0.0625 0  0.390625 0.0625 0  0.40625 0.0625 0  0.421875 0.0625 0  0.4375 0.0625 0  0.453125 0.0625 0  0.46875 0.0625 0  0.484375 0.0625 0  0.5 0.0625 0  0.515625 0.0625 0  0.53125 0.0625 0  0.546875 0.0625 0  0.5625 0.0625 0  0.578125 0.0625 0  0.59375 0.0625 0  0.609375 0.0625 0  0.625 0.0625 0  0.640625 0.0625 0  0.65625 0.0625 0  0.671875 0.0625 0  0.6875 0.0625 0  0.703125 0.0625 0  0.71875 0.0625 0  0.734375 0.0625 0  0.75 0.0625 0  0.765625 0.0625 0  0.78125 0.0625 0  0.796875 0.0625 0  0.8125 0.0625 0  0.828125 0.0625 0  0.84375 0.0625 0  0.859375 0.0625 0  0.875 0.0625 0  0.890625 0.0625 0  0.90625 0.0625 0  0.921875 0.0625 0  0.9375 0.0625 0  0.953125 0.0625 0  0.96875 0.0625 0  0.984375 0.0625 0  1 0.0625 0  0 0.078125 0  0.015625 0.078125 0  0.03125 0.078125 0  0.046875 0.078125 0  0.0625 0.078125 0  0.078125 0.078125 0  0.09375 0.078125 0  0.109375 0.078125 0  0.125 0.078125 0  0.140625 0.078125 0  0.15625 0.078125 0  0.171875 0.078125 0  0.1875 0.078125 0  0.203125 0.078125 0  0.21875 0.078125 0  0.234375 0.078125 0  0.25 0.078125 0  0.265625 0.078125 0  0.28125 0.078125 0  0.296875 0.078125 0  0.3125 0.078125 0  0.328125 0.078125 0  0.34375 0.078125 0  0.359375 0.078125 0  0.375 0.078125 0  0.390625 0.078125 0  0.40625 0.078125 0  0.421875 0.078125 0  0.4375 0.078125 0  0.453125 0.078125 0  0.46875 0.078125 0  0.484375 0.078125 0  0.5 0.078125 0  0.515625 0.078125 0  0.53125 0.078125 0  0.546875 0.078125 0  0.5625 0.078125 0  0.578125 0.078125 0  0.59375 0.078125 0  0.609375 0.078125 0  0.625 0.078125 0  0.640625 0.078125 0  0.65625 0.078125 0  0.671875 0.078125 0  0.6875 0.078125 0  0.703125 0.078125 0  0.71875 0.078125 0  0.734375 0.078125 0  0.75 0.078125 0  0.765625 0.078125 0  0.78125 0.078125 0  0.796875 0.078125 0  0.8125 0.078125 0  0.828125 0.078125 0  0.84375 0.078125 0  0.859375 0.078125 0  0.875 0.078125 0  0.890625 0.078125 0  0.90625 0.078125 0  0.921875 0.078125 0  0.9375 0.078125 0  0.953125 0.078125 0  0.96875 0.078125 0  0.984375 0.078125 0  1 0.078125 0  0 0.09375 0  0.015625 0.09375 0  0.03125 0.09375 0  0.046875 0.09375 0  0.0625 0.09375 0  0.078125 0.09375 0  0.09375 0.09375 0  0.109375 0.09375 0  0.125 0.09375 0  0.140625 0.09375 0  0.15625 0.09375 0  0.171875 0.09375 0  0.1875 0.09375 0  0.203125 0.09375 0  0.21875 0.09375 0  0.234375 0.09375 0  0.25 0.09375 0  0.265625 0.09375 0  0.28125 0.09375 0  0.296875 0.09375 0  0.3125 0.09375 0  0.328125 0.09375 0  0.34375 0.09375 0  0.359375 0.09375 0  0.375 0.09375 0  0.390625 0.09375 0  0.40625 0.09375 0  0.421875 0.09375 0  0.4375 0.09375 0  0.453125 0.09375 0  0.46875 0.09375 0  0.484375 0.09375 0  0.5 0.09375 0  0.515625 0.09375 0  0.53125 0.09375 0  0.546875 0.09375 0  0.5625 0.09375 0  0.578125 0.09375 0  0.59375 0.09375 0  0.609375 0.09375 0  0.625 0.09375 0  0.640625 0.09375 0  0.65625 0.09375 0  0.671875 0.09375 0  0.6875 0.09375 0  0.703125 0.09375 0  0.71875 0.09375 0  0.734375 0.09375 0  0.75 0.09375 0  0.765625 0.09375 0  0.78125 0.09375 0  0.796875 0.09375 0  0.8125 0.09375 0  0.828125 0.09375 0  0.84375 0.09375 0  0.859375 0.09375 0  0.875 0.09375 0  0.890625 0.09375 0  0.90625 0.09375 0  0.921875 0.09375 0  0.9375 0.09375 0  0.953125 0.09375 0  0.96875 0.09375 0  0.984375 0.09375 0  1 0.09375 0  0 0.109375 0  0.015625 0.109375 0  0.03125 0.109375 0  0.046875 0.109375 0  0.0625 0.109375 0  0.078125 0.109375 0  0.09375 0.109375 0  0.109375 0.109375 0  0.125 0.109375 0  0.140625 0.109375 0  0.15625 0.109375 0  0.171875 0.109375 0  0.1875 0.109375 0  0.203125 0.109375 0  0.21875 0.109375 0  0.234375 0.109375 0  0.25 0.109375 0  0.265625 0.109375 0  0.28125 0.109375 0  0.296875 0.109375 0  0.3125 0.109375 0  0.328125 0.109375 0  0.34375 0.109375 0  0.359375 0.109375 0  0.375 0.109375 0  0.390625 0.109375 0  0.40625 0.109375 0  0.421875 0.109375 0  0.4375 0.109375 0  0.453125 0.109375 0  0.46875 0.109375 0  0.484375 0.109375 0  0.5 0.109375 0  0.515625 0.109375 0  0.53125 0.109375 0  0.546875 0.109375 0  0.5625 0.109375 0  0.578125 0.109375 0  0.59375 0.109375 0  0.609375 0.109375 0  0.625 0.109375 0  0.640625 0.109375 0  0.65625 0.109375 0  0.671875 0.109375 0  0.6875 0.109375 0  0.703125 0.109375 0  0.71875 0.109375 0  0.734375 0.109375 0  0.75 0.109375 0  0.765625 0.109375 0  0.78125 0.109375 0  0.796875 0.109375 0  0.8125 0.109375 0  0.828125 0.109375 0  0.84375 0.109375 0  0.859375 0.109375 0  0.875 0.109375 0  0.890625 0.109375 0  0.90625 0.109375 0  0.921875 0.109375 0  0.9375 0.109375 0  0.953125 0.109375 0  0.96875 0.109375 0  0.984375 0.109375 0  1 0.109375 0  0 0.125 0  0.015625 0.125 0  0.03125 0.125 0  0.046875 0.125 0  0.0625 0.125 0  0.078125 0.125 0  0.09375 0.125 0  0.109375 0.125 0  0.125 0.12
[...]
<PointData  Scalars="f_6"> 
<DataArray  type="Float64"  Name="f_6"  format="ascii">-2.0000000000000000e+00  -1.9531250000000000e+00  -1.9062500000000000e+00  -1.8593750000000000e+00  -1.8125000000000000e+00  -1.7656250000000000e+00  -1.7187500000000000e+00  -1.6718750000000000e+00  -1.6250000000000000e+00  -1.5781250000000000e+00  -1.5312500000000000e+00  -1.4843750000000000e+00  -1.4375000000000000e+00  -1.3906250000000000e+00  -1.3437500000000000e+00  -1.2968750000000000e+00  -1.2500000000000000e+00  -1.2031250000000000e+00  -1.1562500000000000e+00  -1.1093750000000000e+00  -1.0625000000000000e+00  -1.0156250000000000e+00  -9.6875000000000000e-01  -9.2187500000000000e-01  -8.7500000000000000e-01  -8.2812500000000000e-01  -7.8125000000000000e-01  -7.3437500000000000e-01  -6.8750000000000000e-01  -6.4062500000000000e-01  -5.9375000000000000e-01  -5.4687500000000000e-01  -5.0000000000000000e-01  -4.5312500000000000e-01  -4.0625000000000000e-01  -3.5937500000000000e-01  -3.1250000000000000e-01  -2.6562500000000000e-01  -2.1875000000000000e-01  -1.7187500000000000e-01  -1.2500000000000000e-01  -7.8125000000000000e-02  -3.1250000000000000e-02  1.5625000000000000e-02  6.2500000000000000e-02  1.0937500000000000e-01  1.5625000000000000e-01  2.0312500000000000e-01  2.5000000000000000e-01  2.9687500000000000e-01  3.4375000000000000e-01  3.9062500000000000e-01  4.3750000000000000e-01  4.8437500000000000e-01  5.3125000000000000e-01  5.7812500000000000e-01  6.2500000000000000e-01  6.7187500000000000e-01  7.1875000000000000e-01  7.6562500000000000e-01  8.1250000000000000e-01  8.5937500000000000e-01  9.0625000000000000e-01  9.5312500000000000e-01  1.0000000000000000e+00  -2.0000000000000000e+00  -1.9132719308509516e+00  -1.8332353286115846e+00  -1.7584633652389474e+00  -1.6880339933426358e+00  -1.6212773665462676e+00  -1.5576738798850622e+00  -1.4968048412714619e+00  -1.4383247679958611e+00  -1.3819439778133056e+00  -1.3274167280694085e+00  -1.2745326582736562e+00  -1.2231103592672794e+00  -1.1729923962674558e+00  -1.1240413726224596e+00  -1.0761367650639018e+00  -1.0291723464030984e+00  -9.8305406493086600e-01  -9.3769828488646501e-01  -8.9303031661432875e-01  -8.4898318265629413e-01  -8.0549657965235155e-01  -7.6251600731350200e-01  -7.1999204623173318e-01  -6.7787977720561843e-01  -6.3613834794044499e-01  -5.9473071171951319e-01  -5.5362359182475318e-01  -5.1278776699172335e-01  -4.7219880693808935e-01  -4.3183832330960564e-01  -3.9169540694165017e-01  -3.5176685915171224e-01  -3.1205353609946268e-01  -2.7255339459185696e-01  -2.3327049235718328e-01  -1.9426666649459193e-01  -1.5564933145333523e-01  -1.1735321476438455e-01  -7.9135717233953559e-02  -4.4580826312874418e-02  -1.1929247568083959e-02  2.1762195870284117e-02  5.7385158792256599e-02  9.6133463945154790e-02  1.3800968867156546e-01  1.8130778195542885e-01  2.2537328451638872e-01  2.6991177035699437e-01  3.1477047640509720e-01  3.5986044725116267e-01  4.0512508779612511e-01  4.5052588359536178e-01  4.9603522105987086e-01  5.4163245850494224e-01  5.8730162252897700e-01  6.3302997899471369e-01  6.7880710398720523e-01  7.2462425508232720e-01  7.7047393038352274e-01  8.1634954875380394e-01  8.6224521013129496e-01  9.0815550949026713e-01  9.5407538672499403e-01  1.0000000000000000e+00  -2.0000000000000000e+00  -1.8765491317092096e+00  -1.7679250568070948e+00  -1.6707178382040295e+00  -1.5825775503650130e+00  -1.5018057453651015e+00  -1.4271276059948586e+00  -1.3575582772947321e+00  -1.2923197692250727e+00  -1.2307865497955586e+00  -1.1724483639853533e+00  -1.1168839306998080e+00  -1.0637418081375818e+00  -1.0127261526055396e+00  -9.6358591670783011e-01  -9.1610652445044372e-01  -8.7010336719033032e-01  -8.2541666203368957e-01  -7.8190734578155330e-01  -7.3945376750940717e-01  -6.9794900628734691e-01  -6.5729868684471005e-01  -6.1741920141501794e-01  -5.7823627491226171e-01  -5.3968383628282712e-01  -5.0170318466233133e-01  -4.6424247031033294e-01  -4.2725655829208486e-01  -3.9070742587710044e-01  -3.5456537544165895e-01  -3.1881147153739986e-01  -2.8344143838420832e-01  -2.4846979394162724e-01  -2.1392806873173689e-01  -1.7984475397527525e-01  -1.4623153110843701e-01  -1.1324329025106773e-01  -8.1393458340064839e-02  -5.0933671536095633e-02  -2.3026281394735316e-02  3.0226001361618234e-03  2.9784332281405184e-02  5.8753956608050703e-02  9.0820255600194036e-02  1.2663900831679709e-01  1.6522250878567804e-01  2.0559815463376124e-01  2.4714858575313167e-01  2.8950332050649147e-01  3.3243468801223197e-01  3.7579622480342811e-01  4.1948902033797597e-01  4.6344322552545120e-01  5.0760754213917936e-01  5.5194299043092099e-01  5.9641905261625239e-01  6.4101118946267255e-01  6.8569918187178069e-01  7.3046598595858081e-01  7.7529691769796005e-01  8.2017905450039785e-01  8.6510078228110876e-01  9.1005144110477854e-01  9.5502103740970934e-01  1.0000000000000000e+00  -2.0000000000000000e+00  -1.8423646399138862e+00  -1.7089840735905568e+00  -1.5935608052086079e+00  -1.4918789303135822e+00  -1.4009938268227637e+00  -1.3187742463754373e+00  -1.2436314854840440e+00  -1.1743519999114524e+00  -1.1099897222322404e+00  -1.0497942986577626e+00  -9.9316177722834020e-01  -9.3959981647223045e-01  -8.8870257210588766e-01  -8.4013220700601021e-01  -7.9360504057228309e-01  -7.4888101551367769e-01  -7.0575558098632973e-01  -6.6405336566729989e-01  -6.2362319800786759e-01  -5.8433415682419565e-01  -5.4607242426732383e-01  -5.0873877846215232e-01  -4.7224661364300385e-01  -4.3652041739382130e-01  -4.0149467169680447e-01  -3.6711318170372986e-01  -3.3332888653726744e-01  -3.0010430665930526e-01  -2.6741301129247635e-01  -2.3524297179838694e-01  -2.0360350555949877e-01  -1.7253823820607248e-01  -1.4214170565308615e-01  -1.1253528832669486e-01  -8.3717254553327097e-02  -5.5709130056965081e-02  -3.0675388180332851e-02  -7.7932919763866347e-03  1.4424242136828629e-02  3.6868206280003396e-02  6.1500027866404607e-02  8.9508919047771515e-02  1.2050289868367170e-01  1.5437980493616157e-01  1.9064318352058807e-01  2.2871374204080647e-01  2.6811958335588532e-01  3.0851823790360783e-01  3.4966873033391149e-01  3.9140074361234201e-01  4.3359154322689947e-01  4.7615045602928779e-01  5.1900873154047511e-01  5.6211290846330997e-01  6.0542040804243935e-01  6.4889654436794331e-01  6.9251244807866452e-01  7.3624358918225519e-01  7.8006869994933914e-01  8.2396896926871888e-01  8.6792742338796414e-01  9.1192843523802991e-01  9.5595732180906434e-01  1.0000000000000000e+00  -2.0000000000000000e+00  -1.8104082637761305e+00  -1.6554696945162743e+00  -1.5251197580490181e+00  -1.4129418829435281e+00  -1.3146314093720253e+00  -1.2271793387661116e+00  -1.1484102974260029e+00  -1.0767070079777974e+00  -1.0108385817366310e+00  -9.4984939974548743e-01  -8.9298482684079283e-01  -8.3964012985863268e-01  -7.8932447888778456e-01  -7.4163502752133026e-01  -6.9623789570295636e-01  -6.5285398495962121e-01  -6.1124824479829043e-01  -5.7122144952461673e-01  -5.3260383330671546e-01  -4.9525012500868221e-01  -4.5903565800514778e-01  -4.2385332602814663e-01  -3.8961122879001497e-01  -3.5623091029767529e-01  -3.2364614330142644e-01  -2.9180225564336748e-01  -2.6065603161277617e-01  -2.3017628674485513e-01  -2.0034542499966415e-01  -1.7116292915283940e-01  -1.4265354232153349e-01  -1.1488842617151417e-01  -8.8051991224924839e-02  -6.2569863395206718e-02  -3.8548269189000089e-02  -1.6774065615814456e-02  3.0985563933558372e-03  2.2724558268544203e-02  4.3104993212784104e-02  6.5128416156808602e-02  8.9838653856438314e-02  1.1727879303295909e-01  1.4730261515055970e-01  1.7973412922358931e-01  2.1425667831970641e-01  2.5049404665299108e-01  2.8809776772599544e-01  3.2678131741814292e-01  3.6632125180746411e-01  4.0654647608512900e-01  4.4732595292799221e-01  4.8855832382432540e-01  5.3016401953012304e-01  5.7207950383940365e-01  6.1425312672225196e-01  6.5664213188799669e-01  6.9921047689267890e-01  7.4192722274243650e-01  7.8476532364842244e-01  8.2770069923717471e-01  8.7071150676399878e-01  9.1377755465031307e-01  9.5687981458851745e-01  1.0000000000000000e+00  -2.0000000000000000e+00  -1.7804828238279220e+00  -1.6066771820085874e+00  -1.4639927129818431e+00  -1.3435862371758751e+00  -1.2397530657988776e+00  -1.1486298110999811e+00  -1.0674960979731003e+00  -9.9437432236632972e-01  -9.2778821123646849e-01  -8.6661084305300884e-01  -8.0996546952773429e-01  -7.5715876285734107e-01  -7.0763467002024205e-01  -6.6094176173222352e-01  -6.1670965578476489e-01  -5.7463168877444593e-01  -5.3445198389223814e-01  -4.9595567381061051e-01  -4.5896143154433533e-01  -4.2331572226312514e-01  -3.8888836563319268e-01  -3.5556912297575011e-01  -3.2326511782012807e-01  -2.9189897786302998e-01  -2.6140766024041689e-01  -2.3174198783345143e-01  -2.0286696483923461e-01  -1.7476295408329015e-01  -1.4742789795829686e-01  -1.2088125279118711e-01  -9.5171589580085550e-02  -7.0393952025197590e-02  -4.6677610481002114e-02  -2.5716536370285190e-02  -6.8019583667071892e-03  1.1134795872666114e-02  2.8774615287048042e-02  4.7486402530213315e-02  6.8146961162410591e-02  9.0701811278008596e-02  1.1544737836958098e-01  1.4246498407706687e-01  1.7169463966201867e-01  2.0299741848792963e-01  2.3615535388165723e-01  2.7090799852545611e-01  3.0699612347696181e-01  3.4418801223550438e-01  3.8228848339267291e-01  4.2113795599271769e-01  4.6060746857561458e-01  5.0059286680989845e-01  5.4100951891628812e-01  5.8178796064192995e-01  6.2287046311916672e-01  6.6420837956911283e-01  7.0576010486161811e-01  7.4748950124638891e-01  7.8936467266473898e-01  8.3135699726755830e-01  8.7344034978054375e-01  9.1559046201070626e-01  9.5778438189469306e-01  1.0000000000000000e+00  -2.0000000000000000e+00  -1.7524434843374832e+00  -1.5620542160267112e+00  -1.4091002373205999e+00  -1.2821806930539394e+00  -1.1742011816238827e+00  -1.0804907859991428e+00  -9.9783465007722361e-01  -9.2393945452752135e-01  -8.5712039288962161e-01  -7.9610891449734633e-01  -7.3992984774458626e-01  -6.8782017160358866e-01  -6.3917374313685671e-01  -5.9350273521116170e-01  -5.5041014334439564e-01  -5.0956981378489929e-01  -4.7071170145907759e-01  -4.3361084351786566e-01  -3.9807902808028711e-01  -3.6395845992271264e-01  -3.3111694094298166e-01  -2.9944423404734427e-01  -2.6884939332595620e-01  -2.3925894601415504e-01  -2.1061592703982571e-01  -1.8287990684888150e-01  -1.5602828812537778e-01  -1.3005922782281990e-01  -1.0499677087121743e-01  -8.0900240361631764e-02  -5.7885025361434687e-02  -3.6174421563222224e-02  -1.6886739625567623e-02  2.3104833633745764e-04  1.6717173322514572e-02  3.3446818843661727e-02  5.1044447502984897e-02  7.0299475402850406e-02  9.1294637628636446e-02  1.1408448942323426e-01  1.3878406426681011e-01  1.6543912524370877e-01  1.9401354093251835e-01  2.2440555118445327e-01  2.5645932019353679e-01  2.8998647009021455e-01  3.2479071542089105e-01  3.6068612465423983e-01  3.9750671353500605e-01  4.3510939591745373e-01  4.7337309857185000e-01  5.1219615592336620e-01  5.5149322868320094e-01  5.9119235669286085e-01  6.3123238554337302e-01  6.7156081840767012e-01  7.1213206173829202e-01  7.5290600471676150e-01  7.9384686849658670e-01  8.3492226738777564e-01  8.7610243307991142e-01  9.1735956171727551e-01  9.5866725097954864e-01  1.0000000000000000e+00  -2.0000000000000000e+00  -1.7261730158410544e+00  -1.5211526751207265e+00  -1.3595912241450467e+00  -1.2274748758722438e+00  -1.1163624140865140e+00  -1.0208332400739797e+00  -9.3722964458388613e-01  -8.6298413257994255e-01  -7.9623564322058793e-01  -7.3559882318302194e-01  -6.8001917690479752e-01  -6.2867876001969070e-01  -5.8093284882214835e-01  -5.3626626651177534e-01  -4.9426256867836366e-01  -4.5458187188652993e-01  -4.1694463626551104e-01  -3.8111964556041539e-01  -3.4691501453215334e-01  -3.1417143288839511e-01  -2.8275710750003402e-01  -2.5256403933242938e-01  -2.2350540272503230e-01  -1.9551391881379121e-01  -1.6854128924140338e-01  -1.4255906090565232e-01  -1.1756175783230891e-01  -9.3573639703560280e-02  -7.0661638389677608e-02  -4.8960960333574360e-02  -2.8783136663122003e-02  -1.0824571304567958e-02  5.2443903381128474e-03  2.0514267009698033e-02  3.6309900394052380e-02  5.3381164881665076e-02  7.1656880478379439e-02  9.1372413949566939e-02  1.1264762452605044e-01  1.3555744451948190e-01  1.6016526403071651e-01  1.8649391169843973e-01  2.1451484763989270e-01  2.4415192512382827e-01  2.7528990561782207e-01  3.0778784622097421e-01  3.4149414346214890e-01  3.7625905742555771e-01  4.1194285017565774e-01  4.4841981557024124e-01  4.8557937387096528e-01  5.2332542962851558e-01  5.6157488320028859e-01  6.0025585190293995e-01  6.3930590395379516e-01  6.7867044677990251e-01  7.1830131896711824e-01  7.5815558738577826e-01  7.9819452921707024e-01  8.3838277070704559e-01  8.7868755343405081e-01  9.1907810079893548e-01  9.5952506030622642e-01  1.0000000000000000e+00  -2.0000000000000000e+00  -1.7015705926923266e+00  -1.4835999010175112e+00  -1.3147812542546105e+00  -1.1784903973830865e+00  -1.0650020648430487e+00  -9.6820752162973012e-01  -8.8405529345041578e-01  -8.0974071022115290e-01  -7.4325392594320716e-01  -6.8311318095789586e-01  -6.2819990082270127e-01  -5.7765272090807251e-01  -5.3079710982138661e-01  -4.8709730830228209e-01  -4.4612271402724823e-01  -4.0752388896112024e-01  -3.7101514566236132e-01  -3.3636174462621110e-01  -3.0337040594966108e-01  -2.7188227113861124e-01  -2.4176773955571809e-01  -2.1292280453605616e-01  -1.8526666259993202e-01  -1.5874050647413218e-01  -1.3330764324087507e-01  -1.0895567762364490e-01  -8.5702905835372323e-02  -6.3613661136235053e-02  -4.2829898274001472e-02  -2.3738047185387346e-02  -6.7573822684760601e-03  8.5827470923060672e-03  2.3259464309426946e-02  3.8351136967506257e-02  5.4626996362331856e-02  7.2111059810566772e-02  9.0829495579300798e-02  1.1088567539098747e-01  1.3236600200651641e-01  1.5533240009792657e-01  1.7982563563813420e-01  2.0585640987944104e-01  2.3340001280478465e-01  2.6239739605314499e-01  2.9276053093294918e-01  3.2438086571371127e-01  3.5713895478117225e-01  3.9091311141018448e-01  4.2558581417182612e-01  4.6104764231688822e-01  4.9719915171325485e-01  5.3395130551944259e-01  5.7122502258649777e-01  6.0895026376481531e-01  6.4706493158896572e-01  6.8551374579102697e-01  7.2424717996450017e-01  7.6322049664216352e-01  8.0239289027887106e-01  8.4172673278928567e-01  8.8118690915031062e-01  9.2074022773818964e-01  9.6035488944642178e-01  1.0000000000000000e+00  -2.0000000000000000e+00  -1.6785462895870518e+00  -1.4490804661152326e+00  -1.2741109614707915e+00  -1.1344480512761097e+00  -1.0191562593725185e+00  -9.2149981227468547e-01  -8.3707847762225562e-01  -7.6288265775699315e-01  -6.9677679492169386e-01  -6.3719936657263665e-01  -5.8297986559652082e-01  -5.3322248650455606e-01  -4.8722961722967839e-01  -4.4445002393669181e-01  -4.0444287919965966e-01  -3.6685226465459259e-01  -3.3138879167306212e-01  -2.9781618964557505e-01  -2.6594146010483810e-01  -2.3560767843323888e-01  -2.0668885398501124e-01  -1.7908649953471070e-01  -1.5272774844689049e-01  -1.2756501779872093e-01  -1.0357746436307885e-01  -8.0775481966265883e-02  -5.9213613044789233e-02  -3.9024821325394685e-02  -2.0634140306966892e-02  -4.3350318583779803e-03  1.0459230095293403e-02  2.4714458337040057e-02  3.9357719488543545e-02  5.5003820188568198e-02  7.1735888277202023e-02  8.9606582418969363e-02  1.0866436663726954e-01  1.2897479002856574e-01  1.5059830801110113e-01  1.7358051822757373e-01  1.9794846854445264e-01  2.2370607937640566e-01  2.5083139764665974e-01  2.7927711535101790e-01  3.0897395634711849e-01  3.3983613091974957e-01  3.7176769853864439e-01  4.0466861926218189e-01  4.3843965278457409e-01  4.7298578781223066e-01  5.0821828514572298e-01  5.4405561814950221e-01  5.8042363786144469e-01  6.1725524898085804e-01  6.5448981284622598e-01  6.9207242483073927e-01  7.2995315845769215e-01  7.6808632893950468e-01  8.0642980246696483e-01  8.4494436102091564e-01  8.8359312263971590e-01  9.2234101155709081e-01  9.6115426974127161e-01  1.0000000000000000e+00  -2.0000000000000000e+00  -1.6570182019289401e+00  -1.4173239114701448e+00  -1.2371170145921613e+00  -1.0947177966522710e+00  -9.7805957505055463e-01  -8.7983793716862313e-01  -7.9534434857395719e-01  -7.2139208821803602e-01  -6.5573916874943527e-01  -5.9675787129318858e-01  -5.4323545378176863e-01  -4.9424871299785345e-01  -4.4908215168420551e-01  -4.0717295397925807e-01  -3.6807303165980132e-01  -3.3142228584492855e-01  -2.9692945352100059e-01  -2.6435823231184796e-01  -2.3351719616624128e-01  -2.0425254767623022e-01  -1.7644313061580283e-01  -1.4999743836241564e-01  -1.2485266483021423e-01  -1.0097617574980744e-01  -7.8370129357072091e-02  -5.7081417282844299e-02  -3.7228236224811626e-02  -1.9207685334139284e-02  -3.3203736524697845e-03  1.1077861207290852e-02  2.4991789373312170e-02  3.9285923141916958e-02  5.4453135119138921e-02  7.0570536021020980e-02  8.7706154138938661e-02  1.0591501495083913e-01  1.2524659852224240e-01  1.4575081007490473e-01  1.6747192178174866e-01  1.9044289625681443e-01  2.1468164093569708e-01  2.4018804143506892e-01  2.6694238305443069e-01  2.9490571135714844e-01  3.2402204818475738e-01  3.5422200307952362e-01  3.8542708919147389e-01  4.1755401431532491e-01  4.5051838989205795e-01  4.8423757100173698e-01  5.1863258290790437e-01  5.5362924407139924e-01  5.8915866172892017e-01  6.2515728145094651e-01  6.6156664598434078e-01  6.9833298222801188e-01  7.3540670009602405e-01  7.7274185819119745e-01  8.1029562962856827e-01  8.4802778618769625e-01  8.8590020883054654e-01  9.2387642610918586e-01  9.6192117796157384e-01  1.0000000000000000e+00  -2.0000000000000000e+00  -1.6369108564976085e+00  -1.3880960799723610e+00  -1.2034113131733155e+00  -1.0587835273756430e+00  -9.4109513904406195e-01  -8.4252768231056963e-01  -7.5810028730455559e-01  -6.8447296704812088e-01  -6.1931340414479896e-01  -5.6093876290569644e-01  -5.0810184049019713e-01  -4.5985759268938864e-01  -4.1547667996190257e-01  -3.7438769870365568e-01  -3.3613756094725195e-01  -3.0036373581510212e-01  -2.6677448358342859e-01  -2.3513464415012106e-01  -2.0525542541291641e-01  -1.7698721726731470e-01  -1.5021488914812064e-01  -1.2485545277466362e-01  -1.0085858354450734e-01  -7.8211598103837418e-02  -5.6952309774301373e-02  -3.7195494988044323e-02  -1.9268408958215393e-02  -3.5488590026264795e-03  1.0601232461612063e-02  2.4230752249814143e-02  3.8215426069886864e-02  5.2984309738176687e-02  6.8598361825074228e-02  8.5119034637438126e-02  1.0260317730669248e-01  1.2110072472320618e-01  1.4065620242595622e-01  1.6130992996706214e-01  1.8309567278417435e-01  2.0603750408223834e-01  2.3014715750645240e-01  2.5542206237374215e-01  2.8184438177884580e-01  3.0938129883838789e-01  3.3798652195523915e-01  3.6760274402211363e-01  3.9816464083240244e-01  4.2960195891558600e-01  4.6184232146659582e-01  4.9481352339475482e-01  5.2844523141275845e-01  5.6267011349927010e-01  5.9742448353189037e-01  6.3264856910966694e-01  6.6828650741217865e-01  7.0428615800094352e-01  7.4059880150719515e-01  7.7717877410069303e-01  8.1398307166841344e-01  8.5097094527075501e-01  8.8810350038558794e-01  9.2534330608753190e-01  9.6265401599583822e-01  1.0000000000000000e+00  -2.0000000000000000e+00  -1.6181542862603062e+00  -1.3611927366883132e+00  -1.1726657008357568e+00  -1.0262176954191056e+00  -9.0775939264500305e-01  -8.0900860381440753e-01  -7.2474391024290818e-01  -6.5149250032103556e-01  -5.8684518828132326e-01  -5.2907310125531604e-01  -4.7690083854889431e-01  -4.2936592594448558e-01  -3.8572835075504996e-01  -3.4541044547298089e-01  -3.0795586695407801e-01  -2.7300100399161609e-01  -2.4025473906671638e-01  -2.0948401930689456e-01  -1.8050363688420598e-01  -1.5316924607198923e-01  -1.2737312853303490e-01  -1.0304275545220762e-01  -8.0143249889395793e-02  -5.8687964960092001e-02  -3.8771734274495817e-02  -2.0684923165091896e-02  -4.9182584646603857e-03  9.1299538973240481e-03  2.2540435887066126e-02  3.6238164677155370e-02 