<?xml version="1.0"?>
<VTKFile type="UnstructuredGrid"  version="0.1"  >
<UnstructuredGrid>
<Piece  NumberOfPoints="441" NumberOfCells="800">
<Points>
<DataArray  type="Float64"  NumberOfComponents="3"  format="ascii">0 0 0  0.05 0 0  0.1 0 0  0.15 0 0  0.2 0 0  0.25 0 0  0.3 0 0  0.35 0 0  0.4 0 0  0.45 0 0  0.5 0 0  0.55 0 0  0.6 0 0  0.65 0 0  0.7 0 0  0.75 0 0  0.8 0 0  0.85 0 0  0.9 0 0  0.95 0 0  1 0 0  0 0.05 0  0.05 0.05 0  0.1 0.05 0  0.15 0.05 0  0.2 0.05 0  0.25 0.05 0  0.3 0.05 0  0.35 0.05 0  0.4 0.05 0  0.45 0.05 0  0.5 0.05 0  0.55 0.05 0  0.6 0.05 0  0.65 0.05 0  0.7 0.05 0  0.75 0.05 0  0.8 0.05 0  0.85 0.05 0  0.9 0.05 0  0.95 0.05 0  1 0.05 0  0 0.1 0  0.05 0.1 0  0.1 0.1 0  0.15 0.1 0  0.2 0.1 0  0.25 0.1 0  0.3 0.1 0  0.35 0.1 0  0.4 0.1 0  0.45 0.1 0  0.5 0.1 0  0.55 0.1 0  0.6 0.1 0  0.65 0.1 0  0.7 0.1 0  0.75 0.1 0  0.8 0.1 0  0.85 0.1 0  0.9 0.1 0  0.95 0.1 0  1 0.1 0  0 0.15 0  0.05 0.15 0  0.1 0.15 0  0.15 0.15 0  0.2 0.15 0  0.25 0.15 0  0.3 0.15 0  0.35 0.15 0  0.4 0.15 0  0.45 0.15 0  0.5 0.15 0  0.55 0.15 0  0.6 0.15 0  0.65 0.15 0  0.7 0.15 0  0.75 0.15 0  0.8 0.15 0  0.85 0.15 0  0.9 0.15 0  0.95 0.15 0  1 0.15 0  0 0.2 0  0.05 0.2 0  0.1 0.2 0  0.15 0.2 0  0.2 0.2 0  0.25 0.2 0  0.3 0.2 0  0.35 0.2 0  0.4 0.2 0  0.45 0.2 0  0.5 0.2 0  0.55 0.2 0  0.6 0.2 0  0.65 0.2 0  0.7 0.2 0  0.75 0.2 0  0.8 0.2 0  0.85 0.2 0  0.9 0.2 0  0.95 0.2 0  1 0.2 0  0 0.25 0  0.05 0.25 0  0.1 0.25 0  0.15 0.25 0  0.2 0.25 0  0.25 0.25 0  0.3 0.25 0  0.35 0.25 0  0.4 0.25 0  0.45 0.25 0  0.5 0.25 0  0.55 0.25 0  0.6 0.25 0  0.65 0.25 0  0.7 0.25 0  0.75 0.25 0  0.8 0.25 0  0.85 0.25 0  0.9 0.25 0  0.95 0.25 0  1 0.25 0  0 0.3 0  0.05 0.3 0  0.1 0.3 0  0.15 0.3 0  0.2 0.3 0  0.25 0.3 0  0.3 0.3 0  0.35 0.3 0  0.4 0.3 0  0.45 0.3 0  0.5 0.3 0  0.55 0.3 0  0.6 0.3 0  0.65 0.3 0  0.7 0.3 0  0.75 0.3 0  0.8 0.3 0  0.85 0.3 0  0.9 0.3 0  0.95 0.3 0  1 0.3 0  0 0.35 0  0.05 0.35 0  0.1 0.35 0  0.15 0.35 0  0.2 0.35 0  0.25 0.35 0  0.3 0.35 0  0.35 0.35 0  0.4 0.35 0  0.45 0.35 0  0.5 0.35 0  0.55 0.35 0  0.6 0.35 0  0.65 0.35 0  0.7 0.35 0  0.75 0.35 0  0.8 0.35 0  0.85 0.35 0  0.9 0.35 0  0.95 0.35 0  1 0.35 0  0 0.4 0  0.05 0.4 0  0.1 0.4 0  0.15 0.4 0  0.2 0.4 0  0.25 0.4 0  0.3 0.4 0  0.35 0.4 0  0.4 0.4 0  0.45 0.4 0  0.5 0.4 0  0.55 0.4 0  0.6 0.4 0  0.65 0.4 0  0.7 0.4 0  0.75 0.4 0  0.8 0.4 0  0.85 0.4 0  0.9 0.4 0  0.95 0.4 0  1 0.4 0  0 0.45 0  0.05 0.45 0  0.1 0.45 0  0.15 0.45 0  0.2 0.45 0  0.25 0.45 0  0.3 0.45 0  0.35 0.45 0  0.4 0.45 0  0.45 0.45 0  0.5 0.45 0  0.55 0.45 0  0.6 0.45 0  0.65 0.45 0  0.7 0.45 0  0.75 0.45 0  0.8 0.45 0  0.85 0.45 0  0.9 0.45 0  0.95 0.45 0  1 0.45 0  0 0.5 0  0.05 0.5 0  0.1 0.5 0  0.15 0.5 0  0.2 0.5 0  0.25 0.5 0  0.3 0.5 0  0.35 0.5 0  0.4 0.5 0  0.45 0.5 0  0.5 0.5 0  0.55 0.5 0  0.6 0.5 0  0.65 0.5 0  0.7 0.5 0  0.75 0.5 0  0.8 0.5 0  0.85 0.5 0  0.9 0.5 0  0.95 0.5 0  1 0.5 0  0 0.55 0  0.05 0.55 0  0.1 0.55 0  0.15 0.55 0  0.2 0.55 0  0.25 0.55 0  0.3 0.55 0  0.35 0.55 0  0.4 0.55 0  0.45 0.55 0  0.5 0.55 0  0.55 0.55 0  0.6 0.55 0  0.65 0.55 0  0.7 0.55 0  0.75 0.55 0  0.8 0.55 0  0.85 0.55 0  0.9 0.55 0  0.95 0.55 0  1 0.55 0  0 0.6 0  0.05 0.6 0  0.1 0.6 0  0.15 0.6 0  0.2 0.6 0  0.25 0.6 0  0.3 0.6 0  0.35 0.6 0  0.4 0.6 0  0.45 0.6 0  0.5 0.6 0  0.55 0.6 0  0.6 0.6 0  0.65 0.6 0  0.7 0.6 0  0.75 0.6 0  0.8 0.6 0  0.85 0.6 0  0.9 0.6 0  0.95 0.6 0  1 0.6 0  0 0.65 0  0.05 0.65 0  0.1 0.65 0  0.15 0.65 0  0.2 0.65 0  0.25 0.65 0  0.3 0.65 0  0.35 0.65 0  0.4 0.65 0  0.45 0.65 0  0.5 0.65 0  0.55 0.65 0  0.6 0.65 0  0.65 0.65 0  0.7 0.65 0  0.75 0.65 0  0.8 0.65 0  0.85 0.65 0  0.9 0.65 0  0.95 0.65 0  1 0.65 0  0 0.7 0  0.05 0.7 0  0.1 0.7 0  0.15 0.7 0  0.2 0.7 0  0.25 0.7 0  0.3 0.7 0  0.35 0.7 0  0.4 0.7 0  0.45 0.7 0  0.5 0.7 0  0.55 0.7 0  0.6 0.7 0  0.65 0.7 0  0.7 0.7 0  0.75 0.7 0  0.8 0.7 0  0.85 0.7 0  0.9 0.7 0  0.95 0.7 0  1 0.7 0  0 0.75 0  0.05 0.75 0  0.1 0.75 0  0.15 0.75 0  0.2 0.75 0  0.25 0.75 0  0.3 0.75 0  0.35 0.75 0  0.4 0.75 0  0.45 0.75 0  0.5 0.75 0  0.55 0.75 0  0.6 0.75 0  0.65 0.75 0  0.7 0.75 0  0.75 0.75 0  0.8 0.75 0  0.85 0.75 0  0.9 0.75 0  0.95 0.75 0  1 0.75 0  0 0.8 0  0.05 0.8 0  0.1 0.8 0  0.15 0.8 0  0.2 0.8 0  0.25 0.8 0  0.3 0.8 0  0.35 0.8 0  0.4 0.8 0  0.45 0.8 0  0.5 0.8 0  0.55 0.8 0  0.6 0.8 0  0.65 0.8 0  0.7 0.8 0  0.75 0.8 0  0.8 0.8 0  0.85 0.8 0  0.9 0.8 0  0.95 0.8 0  1 0.8 0  0 0.85 0  0.05 0.85 0  0.1 0.85 0  0.15 0.85 0  0.2 0.85 0  0.25 0.85 0  0.3 0.85 0  0.35 0.85 0  0.4 0.85 0  0.45 0.85 0  0.5 0.85 0  0.55 0.85 0  0.6 0.85 0  0.65 0.85 0  0.7 0.85 0  0.75 0.85 0  0.8 0.85 0  0.85 0.85 0  0.9 0.85 0  0.95 0.85 0  1 0.85 0  0 0.9 0  0.05 0.9 0  0.1 0.9 0  0.15 0.9 0  0.2 0.9 0  0.25 0.9 0  0.3 0.9 0  0.35 0.9 0  0.4 0.9 0  0.45 0.9 0  0.5 0.9 0  0.55 0.9 0  0.6 0.9 0  0.65 0.9 0  0.7 0.9 0  0.75 0.9 0  0.8 0.9 0  0.85 0.9 0  0.9 0.9 0  0.95 0.9 0  1 0.9 0  0 0.95 0  0.05 0.95 0  0.1 0.95 0  0.15 0.95 0  0.2 0.95 0  0.25 0.95 0  0.3 0.95 0  0.35 0.95 0  0.4 0.95 0  0.45 0.95 0  0.5 0.95 0  0.55 0.95 0  0.6 0.95 0  0.65 0.95 0  0.7 0.95 0  0.75 0.95 0  0.8 0.95 0  0.85 0.95 0  0.9 0.95 0  0.95 0.95 0  1 0.95 0  0 1 0  0.05 1 0  0.1 1 0  0.15 1 0  0.2 1 0  0.25 1 0  0.3 1 0  0.35 1 0  0.4 1 0  0.45 1 0  0.5 1 0  0.55 1 0  0.6 1 0  0.65 1 0  0.7 1 0  0.75 1 0  0.8 1 0  0.85 1 0  0.9 1 0  0.95 1 0  1 1 0  </DataArray>
</Points>
<Cells>
[...]
<PointData  Scalars="f_6"> 
<DataArray  type="Float64"  Name="f_6"  format="ascii">-2.0000000000000000e+00  -1.8499999999999999e+00  -1.7000000000000000e+00  -1.5500000000000000e+00  -1.4000000000000001e+00  -1.2500000000000000e+00  -1.0999999999999999e+00  -9.5000000000000018e-01  -8.0000000000000004e-01  -6.5000000000000013e-01  -5.0000000000000000e-01  -3.4999999999999987e-01  -2.0000000000000007e-01  -4.9999999999999933e-02  9.9999999999999867e-02  2.5000000000000000e-01  4.0000000000000013e-01  5.4999999999999993e-01  7.0000000000000007e-01  8.4999999999999987e-01  1.0000000000000000e+00  -2.0000000000000000e+00  -1.4455122354355787e+00  -1.2241733175392053e+00  -1.0834689178247476e+00  -9.7170320091195450e-01  -8.7137035915677985e-01  -7.7465223420592788e-01  -6.7734104747557622e-01  -5.7685072894148293e-01  -4.7152201115930181e-01  -3.6042958583573453e-01  -2.4327259536984358e-01  -1.2003860340761525e-01  9.4486299268967348e-03  1.4460516901280382e-01  2.8383729260763957e-01  4.2530331401011923e-01  5.6808317845351886e-01  7.1166752648823328e-01  8.5572382650925871e-01  1.0000000000000000e+00  -2.0000000000000000e+00  -1.2851964881507518e+00  -1.0484331142099983e+00  -9.1066518808918184e-01  -8.0671538751081706e-01  -7.1648658374249552e-01  -6.3132422676463518e-01  -5.4663045705772206e-01  -4.5958888175675627e-01  -3.6833085688258499e-01  -2.7159751990206060e-01  -1.6851859824101181e-01  -5.8266075261800755e-02  5.9770902793889372e-02  1.8498390978769988e-01  3.1544068740763515e-01  4.4929278497931802e-01  5.8536187331572309e-01  7.2286310099015549e-01  8.6122777954880148e-01  1.0000000000000000e+00  -2.0000000000000000e+00  -1.1987949097544410e+00  -9.5418357198634984e-01  -8.1668055802692363e-01  -7.1453272226507458e-01  -6.2694641264822915e-01  -5.4523614823891731e-01  -4.6485891550858444e-01  -3.8304085338970734e-01  -2.9788828629319747e-01  -2.0798244086975617e-01  -1.1210214182231618e-01  -8.9753196859478340e-03  1.0200041586921289e-01  2.2011887993647131e-01  3.4364876225588309e-01  4.7106526518379443e-01  6.0120842883989978e-01  7.3319522460786346e-01  8.6632419069579158e-01  1.0000000000000000e+00  -2.0000000000000000e+00  -1.1453416773383573e+00  -8.9513956118579951e-01  -7.5677078938521103e-01  -6.5454736444807615e-01  -5.6740174848367064e-01  -4.8670661476570010e-01  -4.0799295042480754e-01  -3.2853113866465794e-01  -2.4641535289323571e-01  -1.6012460767080824e-01  -6.8214536179085281e-02  3.0669670163859027e-02  1.3696067917609062e-01  2.4984243183308927e-01  3.6797021649563122e-01  4.9011108466007658e-01  6.1521135225221824e-01  7.4238517790560654e-01  8.7087375862650140e-01  1.0000000000000000e+00  -2.0000000000000000e+00  -1.1098892832343539e+00  -8.5542159839677501e-01  -7.1584773739256369e-01  -6.1291922387808773e-01  -5.2544401648402672e-01  -4.4485158184229356e-01  -3.6672390626446960e-01  -2.8835415330547648e-01  -2.0781845551187622e-01  -1.2352047124590003e-01  -3.3877934396563496e-02  6.2329336094661507e-02  1.6533019883820099e-01  2.7431995172416412e-01  3.8827858723347541e-01  5.0619750470866265e-01  6.2714071760328993e-01  7.5026037613584362e-01  8.7478566590460771e-01  1.0000000000000000e+00  -2.0000000000000000e+00  -1.0855800823927286e+00  -8.2788388865659235e-01  -6.8714226886961272e-01  -5.8337581114869896e-01  -4.9533905238916859e-01  -4.1450757397479032e-01  -3.3649528088905950e-01  -2.5860328727693793e-01  -1.7888646683309969e-01  -9.5689580282450074e-02  -7.3781337162910979e-03  8.7080241756301358e-02  1.8771082835788766e-01  2.9382858899189102e-01  4.0462667600544389e-01  5.1925962933780845e-01  6.3689363731643522e-01  7.5672994312987030e-01  8.7800852885608505e-01  1.0000000000000000e+00  -2.0000000000000000e+00  -1.0687983993328305e+00  -8.0876503950991108e-01  -6.6707786429296567e-01  -5.6257310236906721e-01  -4.7399029564805950e-01  -3.9284207943482174e-01  -3.1476263611596600e-01  -2.3705389351877629e-01  -1.5775054304480082e-01  -7.5151097539848860e-02  1.2359511511789429e-02  1.0565263111167911e-01  2.0460428384515722e-01  3.0865689988006839e-01  4.1713989845860039e-01  5.2932069932069192e-01  6.4444425919477144e-01  7.6175723021111730e-01  8.8051850638986162e-01  1.0000000000000000e+00  -2.0000000000000000e+00  -1.0574747418581061e+00  -7.9590530429323314e-01  -6.5359119403581345e-01  -5.4856929199973481e-01  -4.5958555546979973e-01  -3.7818283141646053e-01  -3.0000939228456863e-01  -2.2236629873538280e-01  -1.4327293237964903e-01  -6.0995632189861475e-02  2.6036111441898716e-02  1.1856648733346850e-01  2.1639677603099361e-01  3.1905482822462494e-01  4.2595531862819713e-01  5.3643901029158680e-01  6.4980546993084165e-01  7.6533621212996483e-01  8.8230826649224414e-01  1.0000000000000000e+00  -2.0000000000000000e+00  -1.0503919389284335e+00  -7.8803292024104998e-01  -6.4546553872861323e-01  -5.4021672486803052e-01  -4.5105070086819182e-01  -3.6953528839128280e-01  -2.9133010272058979e-01  -2.1373699835831442e-01  -1.3476718564551665e-01  -5.2669293558155209e-02  3.4094091356511966e-02  1.2618043074930282e-01  2.2336150472072372e-01  3.2521031835924075e-01  4.3118753753797651e-01  5.4067455328661684e-01  6.5300239810704408e-01  7.6747388188565668e-01  8.8337834744915067e-01  1.0000000000000000e+00  -2.0000000000000000e+00  -1.0468788477062507e+00  -7.8445045396815638e-01  -6.4203796648194422e-01  -5.3689339288888216e-01  -4.4780593016525255e-01  -3.6636419622807070e-01  -2.8823840195858763e-01  -2.1073470493499408e-01  -1.3186441733239504e-01  -4.9872751820420794e-02  3.6775565285549781e-02  1.2869963958650729e-01  2.2565849374335772e-01  3.2723740295363757e-01  4.3290995987785086e-01  5.4206926720986026e-01  6.5405568732506070e-01  7.6817856985646693e-01  8.8373124141870152e-01  1.0000000000000000e+00  -2.0000000000000000e+00  -1.0466820514517541e+00  -7.8490170390220138e-01  -6.4307377096313278e-01  -5.3838655178874373e-01  -4.4965893273795005e-01  -3.6849671608130785e-01  -2.9058084418983737e-01  -2.1322605594341432e-01  -1.3445252242866867e-01  -5.2516379555616312e-02  3.4149461020960670e-02  1.2618406856781883e-01  2.2333542771256212e-01  3.2517083983410078e-01  4.3114563180992926e-01  5.4063686834991209e-01  6.5297251412687063e-01  7.6745346879644893e-01  8.8336804836918859e-01  1.0000000000000000e+00  -2.0000000000000000e+00  -1.0499359635265431e+00  -7.8953865594281647e-01  -6.4873379640140683e-01  -5.4486125238332195e-01  -4.5677521452654385e-01  -3.7609505753660222e-01  -2.9851232377864545e-01  -2.2135431016107374e-01  -1.4265869381918395e-01  -6.0707269622216849e-02  2.6119376712479391e-02  1.1855174595124551e-01  2.1632830870497091e-01  3.1896489686027479e-01  4.2586485917785355e-01  5.3636006025298799e-01  6.4974403203606179e-01  7.6529474283326970e-01  8.8228748326160578e-01  1.0000000000000000e+00  -2.0000000000000000e+00  -1.0572026024714190e+00  -7.9896233122502225e-01  -6.5961215786084082e-01  -5.5689439999361512e-01  -4.6970885038453991e-01  -3.8968427365861680e-01  -3.1252097673277413e-01  -2.3556103725000166e-01  -1.5686715151493269e-01  -7.4761744625814849e-02  1.2416369541478154e-02  1.0557522981971314e-01  2.0446116429580119e-01  3.0849557972417407e-01  4.1698884778822193e-01  5.2919448144812464e-01  6.4434881093111940e-01  7.6169398723896165e-01  8.8048714184396504e-01  1.0000000000000000e+00  -2.0000000000000000e+00  -1.0695832212657754e+00  -8.1434614535041139e-01  -6.7685585571876639e-01  -5.7558674711693525e-01  -4.8950591324635351e-01  -4.1024675690474288e-01  -3.3351308392115386e-01  -2.5666013313265484e-01  -1.7778020231872621e-01  -9.5250099291367088e-02  -7.4226776657367721e-03  8.6871639490328029e-02  1.8744553893434654e-01  2.9356740995239888e-01  4.0440047080273578e-01  5.1908020682016864e-01  6.3676274300133062e-01  7.5664525334749189e-01  8.7796709687529395e-01  1.0000000000000000e+00  -2.0000000000000000e+00  -1.0889477160638219e+00  -8.3770131401764103e-01  -7.0242785317219369e-01  -6.0281173234371210e-01  -5.1793475274107470e-01  -4.3943190875326654e-01  -3.6300022972531520e-01  -2.8599991721242113e-01  -2.0655237809170571e-01  -1.2310058568649128e-01  -3.4094811523733400e-02  6.1888466872989378e-02  1.6488194199885783e-01  2.7392805034833917e-01  3.8796541865015344e-01  5.0596313202848286e-01  6.2697670090654267e-01  7.5015718627438110e-01  8.7473599230971966e-01  1.0000000000000000e+00  -2.0000000000000000e+00  -1.1184393056755983e+00  -8.7247382230762305e-01  -7.3970155402822113e-01  -6.4177548266343565e-01  -5.5799925938719619e-01  -4.8001712640894145e-01  -4.0350390297888583e-01  -3.2580660607166845e-01  -2.4506849183516838e-01  -1.5981545874587699e-01  -6.8663725226444219e-02  2.9882682919165224e-02  1.3626571183975594e-01  2.4929743079194672e-01  3.6757002142105621e-01  4.8983020173706576e-01  6.1502374232197621e-01  7.4227079853376976e-01  8.7081968608920413e-01  1.0000000000000000e+00  -2.0000000000000000e+00  -1.1637801657700726e+00  -9.2509800392438069e-01  -7.9499348428626770e-01  -6.9843882226032572e-01  -6.1521738988475472e-01  -5.3702961877811628e-01  -4.5951309455576578e-01  -3.7997001197701574e-01  -2.9654844185920376e-01  -2.0788288871638552e-01  -1.1283861113154552e-01  -1.0164546051220606e-02  1.0100079164905383e-01  2.1942593955863601e-01  3.4318703450505911e-01  4.7076391117674793e-01  6.0101726811052658e-01  7.3308257944951716e-01  8.6627195351332820e-01  1.0000000000000000e+00  -2.0000000000000000e+00  -1.2374980661931876e+00  -1.0100522251795070e+00  -8.8245850671336978e-01  -7.8595346960243206e-01  -7.0149802881710455e-01  -6.2103196351025891e-01  -5.4017400224216816e-01  -4.5614492910398474e-01  -3.6708188021483595e-01  -2.7179451367676299e-01  -1.6956192514706722e-01  -5.9756025206162140e-02  5.8476061249043691e-02  1.8421850128848458e-01  3.1498826586379619e-01  4.4902114035433971e-01  5.8519883949386553e-01  7.2277029764044354e-01  8.6118554851459206e-01  1.0000000000000000e+00  -2.0000000000000000e+00  -1.3794462367055127e+00  -1.1738606336304860e+00  -1.0465980127076904e+00  -9.4434730290828417e-01  -8.5159497243012028e-01  -7.6130983057417456e-01  -6.6936940985141236e-01  -5.7299832385157656e-01  -4.7042805502632995e-01  -3.6089094181688797e-01  -2.4443653712689650e-01  -1.2143598327796006e-01  8.1900653340652874e-03  1.4398373848246288e-01  2.8352638730730195e-01  4.2513354488294880e-01  5.6798665187015307e-01  7.1161422310379874e-01  8.5569994290459761e-01  1.0000000000000000e+00  -2.0000000000000000e+00  -1.8499999999999999e+00  -1.7000000000000000e+00  -1.5500000000000000e+00  -1.4000000000000001e+00  -1.2500000000000000e+00  -1.0999999999999999e+00  -9.5000000000000007e-01  -8.0000000000000004e-01  -6.5000000000000013e-01  -5.0000000000000000e-01  -3.4999999999999981e-01  -2.0000000000000007e-01  -4.9999999999999933e-02  9.9999999999999867e-02  2.5000000000000000e-01  4.0000000000000013e-01  5.4999999999999993e-01  7.0000000000000007e-01  8.4999999999999987e-01  1.0000000000000000e+00  </DataArray> 
</PointData> 
</Piece>
</UnstructuredGrid>
</VTKFile>