<?xml version="1.0"?>
<VTKFile type="UnstructuredGrid"  version="0.1"  >
<UnstructuredGrid>
<Piece  NumberOfPoints="4225" NumberOfCells="8192">
<Points>
<DataArray  type="Float64"  NumberOfComponents="3"  format="ascii">0 0 0  0.015625 0 0  0.03125 0 0  0.046875 0 0  0.0625 0 0  0.078125 0 0  0.09375 0 0  0.109375 0 0  0.125 0 0  0.140625 0 0  0.15625 0 0  0.171875 0 0  0.1875 0 0  0.203125 0 0  0.21875 0 0  0.234375 0 0  0.25 0 0  0.265625 0 0  0.28125 0 0  0.296875 0 0  0.3125 0 0  0.328125 0 0  0.34375 0 0  0.359375 0 0  0.375 0 0  0.390625 0 0  0.40625 0 0  0.421875 0 0  0.4375 0 0  0.453125 0 0  0.46875 0 0  0.484375 0 0  0.5 0 0  0.515625 0 0  0.53125 0 0  0.546875 0 0  0.5625 0 0  0.578125 0 0  0.59375 0 0  0.609375 0 0  0.625 0 0  0.640625 0 0  0.65625 0 0  0.671875 0 0  0.6875 0 0  0.703125 0 0  0.71875 0 0  0.734375 0 0  0.75 0 0  0.765625 0 0  0.78125 0 0  0.796875 0 0  0.8125 0 0  0.828125 0 0  0.84375 0 0  0.859375 0 0  0.875 0 0  0.890625 0 0  0.90625 0 0  0.921875 0 0  0.9375 0 0  0.953125 0 0  0.96875 0 0  0.984375 0 0  1 0 0  0 0.015625 0  0.015625 0.015625 0  0.03125 0.015625 0  0.046875 0.015625 0  0.0625 0.015625 0  0.078125 0.015625 0  0.09375 0.015625 0  0.109375 0.015625 0  0.125 0.015625 0  0.140625 0.015625 0  0.15625 0.015625 0  0.171875 0.015625 0  0.1875 0.015625 0  0.203125 0.015625 0  0.21875 0.015625 0  0.234375 0.015625 0  0.25 0.015625 0  0.265625 0.015625 0  0.28125 0.015625 0  0.296875 0.015625 0  0.3125 0.015625 0  0.328125 0.015625 0  0.34375 0.015625 0  0.359375 0.015625 0  0.375 0.015625 0  0.390625 0.015625 0  0.40625 0.015625 0  0.421875 0.015625 0  0.4375 0.015625 0  0.453125 0.015625 0  0.46875 0.015625 0  0.484375 0.015625 0  0.5 0.015625 0  0.515625 0.015625 0  0.53125 0.015625 0  0.546875 0.015625 0  0.5625 0.015625 0  0.578125 0.015625 0  0.59375 0.015625 0  0.609375 0.015625 0  0.625 0.015625 0  0.640625 0.015625 0  0.65625 0.015625 0  0.671875 0.015625 0  0.6875 0.015625 0  0.703125 0.015625 0  0.71875 0.015625 0  0.734375 0.015625 0  0.75 0.015625 0  0.765625 0.015625 0  0.78125 0.015625 0  0.796875 0.015625 0  0.8125 0.015625 0  0.828125 0.015625 0  0.84375 0.015625 0  0.859375 0.015625 0  0.875 0.015625 0  0.890625 0.015625 0  0.90625 0.015625 0  0.921875 0.015625 0  0.9375 0.015625 0  0.953125 0.015625 0  0.96875 0.015625 0  0.984375 0.015625 0  1 0.015625 0  0 0.03125 0  0.015625 0.03125 0  0.03125 0.03125 0  0.046875 0.03125 0  0.0625 0.03125 0  0.078125 0.03125 0  0.09375 0.03125 0  0.109375 0.03125 0  0.125 0.03125 0  0.140625 0.03125 0  0.15625 0.03125 0  0.171875 0.03125 0  0.1875 0.03125 0  0.203125 0.03125 0  0.21875 0.03125 0  0.234375 0.03125 0  0.25 0.03125 0  0.265625 0.03125 0  0.28125 0.03125 0  0.296875 0.03125 0  0.3125 0.03125 0  0.328125 0.03125 0  0.34375 0.03125 0  0.359375 0.03125 0  0.375 0.03125 0  0.390625 0.03125 0  0.40625 0.03125 0  0.421875 0.03125 0  0.4375 0.03125 0  0.453125 0.03125 0  0.46875 0.03125 0  0.484375 0.03125 0  0.5 0.03125 0  0.515625 0.03125 0  0.53125 0.03125 0  0.546875 0.03125 0  0.5625 0.03125 0  0.578125 0.03125 0  0.59375 0.03125 0  0.609375 0.03125 0  0.625 0.03125 0  0.640625 0.03125 0  0.65625 0.03125 0  0.671875 0.03125 0  0.6875 0.03125 0  0.703125 0.03125 0  0.71875 0.03125 0  0.734375 0.03125 0  0.75 0.03125 0  0.765625 0.03125 0  0.78125 0.03125 0  0.796875 0.03125 0  0.8125 0.03125 0  0.828125 0.03125 0  0.84375 0.03125 0  0.859375 0.03125 0  0.875 0.03125 0  0.890625 0.03125 0  0.90625 0.03125 0  0.921875 0.03125 0  0.9375 0.03125 0  0.953125 0.03125 0  0.96875 0.03125 0  0.984375 0.03125 0  1 0.03125 0  0 0.046875 0  0.015625 0.046875 0  0.03125 0.046875 0  0.046875 0.046875 0  0.0625 0.046875 0  0.078125 0.046875 0  0.09375 0.046875 0  0.109375 0.046875 0  0.125 0.046875 0  0.140625 0.046875 0  0.15625 0.046875 0  0.171875 0.046875 0  0.1875 0.046875 0  0.203125 0.046875 0  0.21875 0.046875 0  0.234375 0.046875 0  0.25 0.046875 0  0.265625 0.046875 0  0.28125 0.046875 0  0.296875 0.046875 0  0.3125 0.046875 0  0.328125 0.046875 0  0.34375 0.046875 0  0.359375 0.046875 0  0.375 0.046875 0  0.390625 0.046875 0  0.40625 0.046875 0  0.421875 0.046875 0  0.4375 0.046875 0  0.453125 0.046875 0  0.46875 0.046875 0  0.484375 0.046875 0  0.5 0.046875 0  0.515625 0.046875 0  0.53125 0.046875 0  0.546875 0.046875 0  0.5625 0.046875 0  0.578125 0.046875 0  0.59375 0.046875 0  0.609375 0.046875 0  0.625 0.046875 0  0.640625 0.046875 0  0.65625 0.046875 0  0.671875 0.046875 0  0.6875 0.046875 0  0.703125 0.046875 0  0.71875 0.046875 0  0.734375 0.046875 0  0.75 0.046875 0  0.765625 0.046875 0  0.78125 0.046875 0  0.796875 0.046875 0  0.8125 0.046875 0  0.828125 0.046875 0  0.84375 0.046875 0  0.859375 0.046875 0  0.875 0.046875 0  0.890625 0.046875 0  0.90625 0.046875 0  0.921875 0.046875 0  0.9375 0.046875 0  0.953125 0.046875 0  0.96875 0.046875 0  0.984375 0.046875 0  1 0.046875 0  0 0.0625 0  0.015625 0.0625 0  0.03125 0.0625 0  0.046875 0.0625 0  0.0625 0.0625 0  0.078125 0.0625 0  0.09375 0.0625 0  0.109375 0.0625 0  0.125 0.0625 0  0.140625 0.0625 0  0.15625 0.0625 0  0.171875 0.0625 0  0.1875 0.0625 0  0.203125 0.0625 0  0.21875 0.0625 0  0.234375 0.0625 0  0.25 0.0625 0  0.265625 0.0625 0  0.28125 0.0625 0  0.296875 0.0625 0  0.3125 0.0625 0  0.328125 0.0625 0  0.34375 0.0625 0  0.359375 0.0625 0  0.375 0.0625 0  0.390625 0.0625 0  0.40625 0.0625 0  0.421875 0.0625 0  0.4375 0.0625 0  0.453125 0.0625 0  0.46875 0.0625 0  0.484375 0.0625 0  0.5 0.0625 0  0.515625 0.0625 0  0.53125 0.0625 0  0.546875 0.0625 0  0.5625 0.0625 0  0.578125 0.0625 0  0.59375 0.0625 0  0.609375 0.0625 0  0.625 0.0625 0  0.640625 0.0625 0  0.65625 0.0625 0  0.671875 0.0625 0  0.6875 0.0625 0  0.703125 0.0625 0  0.71875 0.0625 0  0.734375 0.0625 0  0.75 0.0625 0  0.765625 0.0625 0  0.78125 0.0625 0  0.796875 0.0625 0  0.8125 0.0625 0  0.828125 0.0625 0  0.84375 0.0625 0  0.859375 0.0625 0  0.875 0.0625 0  0.890625 0.0625 0  0.90625 0.0625 0  0.921875 0.0625 0  0.9375 0.0625 0  0.953125 0.0625 0  0.96875 0.0625 0  0.984375 0.0625 0  1 0.0625 0  0 0.078125 0  0.015625 0.078125 0  0.03125 0.078125 0  0.046875 0.078125 0  0.0625 0.078125 0  0.078125 0.078125 0  0.09375 0.078125 0  0.109375 0.078125 0  0.125 0.078125 0  0.140625 0.078125 0  0.15625 0.078125 0  0.171875 0.078125 0  0.1875 0.078125 0  0.203125 0.078125 0  0.21875 0.078125 0  0.234375 0.078125 0  0.25 0.078125 0  0.265625 0.078125 0  0.28125 0.078125 0  0.296875 0.078125 0  0.3125 0.078125 0  0.328125 0.078125 0  0.34375 0.078125 0  0.359375 0.078125 0  0.375 0.078125 0  0.390625 0.078125 0  0.40625 0.078125 0  0.421875 0.078125 0  0.4375 0.078125 0  0.453125 0.078125 0  0.46875 0.078125 0  0.484375 0.078125 0  0.5 0.078125 0  0.515625 0.078125 0  0.53125 0.078125 0  0.546875 0.078125 0  0.5625 0.078125 0  0.578125 0.078125 0  0.59375 0.078125 0  0.609375 0.078125 0  0.625 0.078125 0  0.640625 0.078125 0  0.65625 0.078125 0  0.671875 0.078125 0  0.6875 0.078125 0  0.703125 0.078125 0  0.71875 0.078125 0  0.734375 0.078125 0  0.75 0.078125 0  0.765625 0.078125 0  0.78125 0.078125 0  0.796875 0.078125 0  0.8125 0.078125 0  0.828125 0.078125 0  0.84375 0.078125 0  0.859375 0.078125 0  0.875 0.078125 0  0.890625 0.078125 0  0.90625 0.078125 0  0.921875 0.078125 0  0.9375 0.078125 0  0.953125 0.078125 0  0.96875 0.078125 0  0.984375 0.078125 0  1 0.078125 0  0 0.09375 0  0.015625 0.09375 0  0.03125 0.09375 0  0.046875 0.09375 0  0.0625 0.09375 0  0.078125 0.09375 0  0.09375 0.09375 0  0.109375 0.09375 0  0.125 0.09375 0  0.140625 0.09375 0  0.15625 0.09375 0  0.171875 0.09375 0  0.1875 0.09375 0  0.203125 0.09375 0  0.21875 0.09375 0  0.234375 0.09375 0  0.25 0.09375 0  0.265625 0.09375 0  0.28125 0.09375 0  0.296875 0.09375 0  0.3125 0.09375 0  0.328125 0.09375 0  0.34375 0.09375 0  0.359375 0.09375 0  0.375 0.09375 0  0.390625 0.09375 0  0.40625 0.09375 0  0.421875 0.09375 0  0.4375 0.09375 0  0.453125 0.09375 0  0.46875 0.09375 0  0.484375 0.09375 0  0.5 0.09375 0  0.515625 0.09375 0  0.53125 0.09375 0  0.546875 0.09375 0  0.5625 0.09375 0  0.578125 0.09375 0  0.59375 0.09375 0  0.609375 0.09375 0  0.625 0.09375 0  0.640625 0.09375 0  0.65625 0.09375 0  0.671875 0.09375 0  0.6875 0.09375 0  0.703125 0.09375 0  0.71875 0.09375 0  0.734375 0.09375 0  0.75 0.09375 0  0.765625 0.09375 0  0.78125 0.09375 0  0.796875 0.09375 0  0.8125 0.09375 0  0.828125 0.09375 0  0.84375 0.09375 0  0.859375 0.09375 0  0.875 0.09375 0  0.890625 0.09375 0  0.90625 0.09375 0  0.921875 0.09375 0  0.9375 0.09375 0  0.953125 0.09375 0  0.96875 0.09375 0  0.984375 0.09375 0  1 0.09375 0  0 0.109375 0  0.015625 0.109375 0  0.03125 0.109375 0  0.046875 0.109375 0  0.0625 0.109375 0  0.078125 0.109375 0  0.09375 0.109375 0  0.109375 0.109375 0  0.125 0.109375 0  0.140625 0.109375 0  0.15625 0.109375 0  0.171875 0.109375 0  0.1875 0.109375 0  0.203125 0.109375 0  0.21875 0.109375 0  0.234375 0.109375 0  0.25 0.109375 0  0.265625 0.109375 0  0.28125 0.109375 0  0.296875 0.109375 0  0.3125 0.109375 0  0.328125 0.109375 0  0.34375 0.109375 0  0.359375 0.109375 0  0.375 0.109375 0  0.390625 0.109375 0  0.40625 0.109375 0  0.421875 0.109375 0  0.4375 0.109375 0  0.453125 0.109375 0  0.46875 0.109375 0  0.484375 0.109375 0  0.5 0.109375 0  0.515625 0.109375 0  0.53125 0.109375 0  0.546875 0.109375 0  0.5625 0.109375 0  0.578125 0.109375 0  0.59375 0.109375 0  0.609375 0.109375 0  0.625 0.109375 0  0.640625 0.109375 0  0.65625 0.109375 0  0.671875 0.109375 0  0.6875 0.109375 0  0.703125 0.109375 0  0.71875 0.109375 0  0.734375 0.109375 0  0.75 0.109375 0  0.765625 0.109375 0  0.78125 0.109375 0  0.796875 0.109375 0  0.8125 0.109375 0  0.828125 0.109375 0  0.84375 0.109375 0  0.859375 0.109375 0  0.875 0.109375 0  0.890625 0.109375 0  0.90625 0.109375 0  0.921875 0.109375 0  0.9375 0.109375 0  0.953125 0.109375 0  0.96875 0.109375 0  0.984375 0.109375 0  1 0.109375 0  0 0.125 0  0.015625 0.125 0  0.03125 0.125 0  0.046875 0.125 0  0.0625 0.125 0  0.078125 0.125 0  0.09375 0.125 0  0.109375 0.125 0  0.125 0.12
[...]
<PointData  Scalars="f_6"> 
<DataArray  type="Float64"  Name="f_6"  format="ascii">-2.0000000000000000e+00  -1.9531250000000000e+00  -1.9062500000000000e+00  -1.8593750000000000e+00  -1.8125000000000000e+00  -1.7656250000000000e+00  -1.7187500000000000e+00  -1.6718750000000000e+00  -1.6250000000000000e+00  -1.5781250000000000e+00  -1.5312500000000000e+00  -1.4843750000000000e+00  -1.4375000000000000e+00  -1.3906250000000000e+00  -1.3437500000000000e+00  -1.2968750000000000e+00  -1.2500000000000000e+00  -1.2031250000000000e+00  -1.1562500000000000e+00  -1.1093750000000000e+00  -1.0625000000000000e+00  -1.0156250000000000e+00  -9.6875000000000000e-01  -9.2187500000000000e-01  -8.7500000000000000e-01  -8.2812500000000000e-01  -7.8125000000000000e-01  -7.3437500000000000e-01  -6.8750000000000000e-01  -6.4062500000000000e-01  -5.9375000000000000e-01  -5.4687500000000000e-01  -5.0000000000000000e-01  -4.5312500000000000e-01  -4.0625000000000000e-01  -3.5937500000000000e-01  -3.1250000000000000e-01  -2.6562500000000000e-01  -2.1874999999999997e-01  -1.7187500000000000e-01  -1.2500000000000000e-01  -7.8125000000000000e-02  -3.1250000000000000e-02  1.5625000000000000e-02  6.2500000000000000e-02  1.0937500000000000e-01  1.5625000000000000e-01  2.0312500000000000e-01  2.5000000000000000e-01  2.9687500000000000e-01  3.4375000000000000e-01  3.9062500000000000e-01  4.3750000000000000e-01  4.8437500000000000e-01  5.3125000000000000e-01  5.7812500000000000e-01  6.2500000000000000e-01  6.7187500000000000e-01  7.1875000000000000e-01  7.6562500000000000e-01  8.1250000000000000e-01  8.5937500000000000e-01  9.0625000000000000e-01  9.5312500000000000e-01  1.0000000000000000e+00  -2.0000000000000000e+00  -1.9132702858295223e+00  -1.8332322101366447e+00  -1.7584589583968286e+00  -1.6880284894475330e+00  -1.6212709575708844e+00  -1.5576667542350793e+00  -1.4967971805674065e+00  -1.4383167446269807e+00  -1.3819357531025054e+00  -1.3274084509345006e+00  -1.2745244642982816e+00  -1.2231023701127801e+00  -1.1729847193692908e+00  -1.1240341011238040e+00  -1.0761299779460320e+00  -1.0291661087775761e+00  -9.8304842846285634e-01  -9.3769328832216214e-01  -8.9302598638901021e-01  -8.4897953356353428e-01  -8.0549361555915699e-01  -7.6251372190843858e-01  -7.1999042378815770e-01  -6.7787879332233780e-01  -6.3613797018357832e-01  -5.9473090004435958e-01  -5.5362429864513663e-01  -5.1278893684714044e-01  -4.7220037592972514e-01  -4.3184021881578205e-01  -3.9169754848757665e-01  -3.5176916152729581e-01  -3.1205591528979260e-01  -2.7255577316912810e-01  -2.3327279393680225e-01  -1.9426881803693327e-01  -1.5565128803357545e-01  -1.1735486835227896e-01  -7.9136949241094379e-02  -4.4581759076220778e-02  -1.1929985856002098e-02  2.1761569269100174e-02  5.7384612413956378e-02  9.6132981963384198e-02  1.3800925376345247e-01  1.8130738592611570e-01  2.2537292253151608e-01  2.6991143910367649e-01  3.1477017340145902e-01  3.5986017053875524e-01  4.0512483578029318e-01  4.5052565495183577e-01  4.9603501467511529e-01  5.4163227343562104e-01  5.8730145797316713e-01  6.3302983427080617e-01  6.7880697851809602e-01  7.2462414838339251e-01  7.7047384205340441e-01  8.1634947846734085e-01  8.6224515763415122e-01  9.0815547459493962e-01  9.5407536930798409e-01  1.0000000000000000e+00  -2.0000000000000000e+00  -1.8765459016906829e+00  -1.7679190698679994e+00  -1.6707095699964689e+00  -1.5825674589874859e+00  -1.5017942605104229e+00  -1.4271151233647801e+00  -1.3575451560855007e+00  -1.2923063314390000e+00  -1.2307730806547705e+00  -1.1724351130159860e+00  -1.1168711132226514e+00  -1.0637296069999735e+00  -1.0127147200489519e+00  -9.6357537630228896e-01  -9.1609697304967075e-01  -8.7009487687550136e-01  -8.2540928202211561e-01  -7.8190110428173787e-01  -7.3944867350782706e-01  -6.9794505125679873e-01  -6.5729584637002347e-01  -6.1741743673712135e-01  -5.7823553438802400e-01  -5.3968405673191400e-01  -5.0170429251252902e-01  -4.6424438237442839e-01  -4.2725918197912705e-01  -3.9071065876721467e-01  -3.5456910450962814e-01  -3.1881557283295431e-01  -2.8344577844999663e-01  -2.4847423449197487e-01  -2.1393247600148799e-01  -1.7984900946693222e-01  -1.4623550942804234e-01  -1.1324687183629920e-01  -8.1396631252833127e-02  -5.0936156169386217e-02  -2.3028158145271448e-02  3.0210514098334656e-03  2.9783005049507767e-02  5.8752799894528453e-02  9.0819209993025327e-02  1.2663806167612793e-01  1.6522164716431018e-01  2.0559736740949419e-01  2.4714786509627221e-01  2.8950266048173073e-01  3.3243408396340457e-01  3.7579567297326888e-01  4.1948851763058181e-01  4.6344276935193468e-01  5.0760713031300431e-01  5.5194262109420211e-01  5.9641872418624120e-01  6.4101090059196164e-01  6.8569893141818516e-01  7.3046577296206983e-01  7.7529674136288440e-01  8.2017891418180788e-01  8.6510067747432451e-01  9.1005137143762316e-01  9.5502100263699652e-01  1.0000000000000000e+00  -2.0000000000000000e+00  -1.8423598757422337e+00  -1.7089754414601319e+00  -1.5935491556836023e+00  -1.4918650334939074e+00  -1.4009783627941856e+00  -1.3187578064362560e+00  -1.2436145777717540e+00  -1.1743350565540114e+00  -1.1099731067270737e+00  -1.0497783129153542e+00  -9.9314666806331831e-01  -9.3958578148724636e-01  -8.8868976498693764e-01  -8.4012074227760791e-01  -7.9359499786913068e-01  -7.4887244342320114e-01  -7.0574850050917370e-01  -6.6404777333376286e-01  -6.2361906867989414e-01  -5.8433144620764266e-01  -5.4607107116031728e-01  -5.0873870677185862e-01  -4.7224773420590271e-01  -4.3652262961107241e-01  -4.0149786491814277e-01  -3.6711723616259156e-01  -3.3333367354757770e-01  -3.0010968791610365e-01  -2.6741883762141383e-01  -2.3524908248476098e-01  -2.0360973001879115e-01  -1.7254440178725500e-01  -1.4214764138828273e-01  -1.1254086153161677e-01  -8.3722249047186934e-02  -5.5713273590760809e-02  -3.0678801329386648e-02  -7.7960863577616569e-03  1.4421886026160027e-02  3.6866123595960996e-02  6.1498153888732220e-02  8.9507231295480133e-02  1.2050136598748858e-01  1.5437840758379195e-01  1.9064190580816581e-01  2.2871257145127877e-01  2.6811850996234782e-01  3.0851725376356959e-01  3.4966782899715998e-01  3.9139991976033384e-01  4.3359079241683052e-01  4.7614977451231683e-01  5.1900811613076570e-01  5.6211235644194213e-01  6.0541991708563414e-01  6.4889611249261403e-01  6.9251207360061340e-01  7.3624327068381701e-01  7.8006843625425559e-01  8.2396875942268188e-01  8.6792726664371589e-01  9.1192833104423243e-01  9.5595726980237861e-01  1.0000000000000000e+00  -2.0000000000000000e+00  -1.8104020109866366e+00  -1.6554586184866160e+00  -1.5251051460513811e+00  -1.4129248367384375e+00  -1.3146128498033161e+00  -1.2271600251596353e+00  -1.1483908497511244e+00  -1.0766879275696155e+00  -1.0108202693583195e+00  -9.4983217088773031e-01  -8.9296892454027421e-01  -8.3962573541434693e-01  -7.8931172084165624e-01  -7.4162398922117412e-01  -6.9622862171012645e-01  -6.5284648651133781e-01  -6.1124250448855155e-01  -5.7121742532806685e-01  -5.3260146203718972e-01  -4.9524932528046572e-01  -4.5903633275458133e-01  -4.2385536465959411e-01  -3.8961450902648831e-01  -3.5623529980985336e-01  -3.2365150109627183e-01  -2.9180843297157155e-01  -2.6066287190960974e-01  -2.3018362417889132e-01  -2.0035308188381093e-01  -1.7117071374629644e-01  -1.4266124979584169e-01  -1.1489584626802590e-01  -8.8058926172679963e-02  -6.2576220884463643e-02  -3.8553629423853160e-02  -1.6778461358754444e-02  3.0947979227763764e-03  2.2721313274161055e-02  4.3102131619230898e-02  6.5125788593401082e-02  8.9836255613979996e-02  1.1727660541117127e-01  1.4730061507765696e-01  1.7973229686338549e-01  2.1425499703328235e-01  2.5049250262510753e-01  2.8809634953827068e-01  3.2678001561303988e-01  3.6632005850133204e-01  4.0654538465407608e-01  4.4732495776408943e-01  4.8855742014973635e-01  5.3016320325579969e-01  5.7207877145716624e-01  6.1425247522173876e-01  6.5664155869224683e-01  6.9920997980783761e-01  7.4192679991832944e-01  7.8476497354763963e-01  8.2770042061094795e-01  8.7071129863362495e-01  9.1377741629321230e-01  9.5687974552828470e-01  1.0000000000000000e+00  -2.0000000000000000e+00  -1.7804751250937754e+00  -1.6066638447921675e+00  -1.4639755025223724e+00  -1.3435665875398304e+00  -1.2397321159243591e+00  -1.1486084546708886e+00  -1.0674750297567810e+00  -9.9435407688804234e-01  -9.2776919383253975e-01  -8.6659335447527486e-01  -8.0994972540154220e-01  -7.5714490912754395e-01  -7.0762279529480610e-01  -6.6093190722771811e-01  -6.1670182341030322e-01  -5.7462584775920866e-01  -5.3444807625935986e-01  -4.9595361891927087e-01  -4.5896112985691023e-01  -4.2331705844408568e-01  -3.8889121105688479e-01  -3.5557333772272842e-01  -3.2327055228089296e-01  -2.9190547410697448e-01  -2.6141505322524289e-01  -2.3175010616220862e-01  -2.0287563019056665e-01  -1.7477197823496543e-01  -1.4743707708339171e-01  -1.2089036042882322e-01  -9.5180370272934550e-02  -7.0402107817458134e-02  -4.6684803622432873e-02  -2.5722816049226563e-02  -6.8073508589282837e-03  1.1130104160811286e-02  2.8770401332254086e-02  4.7482581730903389e-02  6.8143498586859350e-02  9.0698643544432439e-02  1.1544447456261545e-01  1.4246231965756800e-01  1.7169219204858244e-01  2.0299516775881069e-01  2.3615328283647061e-01  2.7090609247759828e-01  3.0699436995258694e-01  3.4418640064898703e-01  3.8228700474105193e-01  4.2113660259054908e-01  4.6060623383571453e-01  5.0059174506673942e-01  5.4100850528553046e-01  5.8178705090918448e-01  6.2286965365190694e-01  6.6420766724679692e-01  7.0575948702016111e-01  7.4748897563402361e-01  7.8936423740702510e-01  8.3135665083984556e-01  8.7344009098662323e-01  9.1559028996670744e-01  9.5778429601754822e-01  1.0000000000000000e+00  -2.0000000000000000e+00  -1.7524343810289154e+00  -1.5620387842232479e+00  -1.4090807441199085e+00  -1.2821588924661400e+00  -1.1741784016274290e+00  -1.0804680205245156e+00  -9.9781263560687239e-01  -9.2391872954411014e-01  -8.5710134295267282e-01  -7.9609180625587750e-01  -7.3991485468761264e-01  -6.8780739369864174e-01  -6.3916322194630515e-01  -5.9349446564593933e-01  -5.5040408289826892e-01  -5.0956588986268558e-01  -4.7070981724420186e-01  -4.3361088269783993e-01  -3.9808085864788306e-01  -3.6396193718777342e-01  -3.3112190982979278e-01  -2.9945053073884820e-01  -2.6885684638334800e-01  -2.3926737723709987e-01  -2.1062515234476822e-01  -1.8288973687843854e-01  -1.5603852700000417e-01  -1.3006966757130170e-01  -1.0500717966395040e-01  -8.0910344977213972e-02  -5.7894479214022652e-02  -3.6182780529001680e-02  -1.6894011112218207e-02  2.2460324105536710e-04  1.6711452833335329e-02  3.3441679571782228e-02  5.1039697701927497e-02  7.0295113730339115e-02  9.1290637452870776e-02  1.1408081243485382e-01  1.3878067943448141e-01  1.6543600660790284e-01  1.9401066570029429e-01  2.2440289928680443e-01  2.5645687407619122e-01  2.8998421449622824e-01  3.2478863714549183e-01  3.6068421228926978e-01  3.9750495722333945e-01  4.3510778713135390e-01  4.7337162992147985e-01  5.1219482099597646e-01  5.5149202191039859e-01  5.9119127324213416e-01  6.3123142122990783e-01  6.7155996962287334e-01  7.1213132539198631e-01  7.5290537819057834e-01  7.9384634960659184e-01  8.3492185435478605e-01  8.7610212450631442e-01  9.1735935656944601e-01  9.5866714857520052e-01  1.0000000000000000e+00  -2.0000000000000000e+00  -1.7261625489839709e+00  -1.5211353010516433e+00  -1.3595697216827334e+00  -1.2274512984130515e+00  -1.1163382475613350e+00  -1.0208095470705401e+00  -9.3720717553000465e-01  -8.6296340738944177e-01  -7.9621701045609738e-01  -7.3558250296069083e-01  -6.8000529222520156e-01  -6.2866735986960187e-01  -5.8092392539382876e-01  -5.3625976818152454e-01  -4.9425840989761144e-01  -4.5457994080138059e-01  -4.1694480064498829e-01  -3.8112175744273274e-01  -3.4691891386355883e-01  -3.1417695031016191e-01  -2.8276406633220180e-01  -2.5257225674133599e-01  -2.2351469013648331e-01  -1.9552408194187054e-01  -1.6855212844213663e-01  -1.4257037185073682e-01  -1.1757332954566346e-01  -9.3585244468410461e-02  -7.0673006771493116e-02  -4.8971720643918151e-02  -2.8792731467725569e-02  -1.0832956836388335e-02  5.2369057465649869e-03  2.0507444324512548e-02  3.6303645644450891e-02  5.3375434979302923e-02  7.1651596173334567e-02  9.1367538035654769e-02  1.1264312505943072e-01  1.3555328930763072e-01  1.6016142413255360e-01  1.8649036163926758e-01  2.1451156485788755e-01  2.4414888961192152e-01  2.7528709968526172e-01  3.0778525428563164e-01  3.4149175184388225e-01  3.7625685413926074e-01  4.1194082473168248e-01  4.4841795879004720e-01  4.8557767772287452e-01  5.2332388708528788e-01  5.6157348811795338e-01  6.0025459891904565e-01  6.3930478840271709e-01  6.7866946462280209e-01  7.1830046673433245e-01  7.5815486212971162e-01  7.9819392847397785e-01  8.3838229246639251e-01  8.7868719611440238e-01  9.1907786322956153e-01  9.5952494171380809e-01  1.0000000000000000e+00  -2.0000000000000000e+00  -1.7015588035139251e+00  -1.4835807241364733e+00  -1.3147579791386244e+00  -1.1784653516669292e+00  -1.0649768619708178e+00  -9.6818326512475417e-01  -8.8403272534542243e-01  -8.0972031521803645e-01  -7.4323600406312373e-01  -6.8309789846682134e-01  -6.2818732626996776e-01  -5.7764285091823975e-01  -5.3078988776908309e-01  -4.8709263798865293e-01  -4.4612046980491349e-01  -4.0752392330775977e-01  -3.7101729490318591e-01  -3.3636583329759928e-01  -3.0337625013630642e-01  -2.7188968096539312e-01  -2.4177652084438506e-01  -2.1293275946476931e-01  -1.8527758918727763e-01  -1.5875219722096132e-01  -1.3331988447675555e-01  -1.0896825081796828e-01  -8.5715584947870696e-02  -6.3626193495191316e-02  -4.2841918279016483e-02  -2.3748876210235255e-02  -6.7668990166340186e-03  8.5742223131987962e-03  2.3251631723259576e-02  3.8343854438813718e-02  5.4620250440652801e-02  7.2104818527643999e-02  9.0823713976453127e-02  1.1088031717951463e-01  1.3236103544156672e-01  1.5532779560368479e-01  1.7982136614883468e-01  2.0585245095872626e-01  2.3339634248006708e-01  2.6239399461773238e-01  2.9275738076730251e-01  3.2437795111715439e-01  3.5713626180514524e-01  3.9091062769220841e-01  4.2558352877408279e-01  4.6104554557427790e-01  4.9719723509468333e-01  5.3394956150434736e-01  5.7122344455708174e-01  6.0894884591337795e-01  6.4706366883911326e-01  6.8551263373128601e-01  7.2424621479282980e-01  7.6321967511995814e-01  8.0239220969321523e-01  8.4172619092240353e-01  8.8118650425534073e-01  9.2073995852059010e-01  9.6035475505046952e-01  1.0000000000000000e+00  -2.0000000000000000e+00  -1.6785332197805976e+00  -1.4490596141364078e+00  -1.2740861181219334e+00  -1.1344217912775263e+00  -1.0191302954316031e+00  -9.2147526542037483e-01  -8.3705606413586409e-01  -7.6286281535386169e-01  -6.9675976788318128e-01  -6.3718526365537698e-01  -5.8296869987456168e-01  -5.3321420311711498e-01  -4.8722411293556978e-01  -4.4444716104397025e-01  -4.0444249558160289e-01  -3.6685418100964490e-01  -3.3139281682815508e-01  -2.9782212446732942e-01  -2.6594910041462305e-01  -2.3561681715880753e-01  -2.0669928254667430e-01  -1.7909800809510915e-01  -1.5274012427653988e-01  -1.2757804143288246e-01  -1.0359090630046082e-01  -8.0789105819741733e-02  -5.9227171645505554e-02  -3.9037978894044909e-02  -2.0646147781560667e-02  -4.3456679504646021e-03  1.0449672644290808e-02  2.4705634528840368e-02  3.9349449102704527e-02  5.4996091266829951e-02  7.1728683151702610e-02  8.9599874714167166e-02  1.0865812402531932e-01  1.2896898126438391e-01  1.5059290392363675e-01  1.7357549151670701e-01  1.9794379390037400e-01  2.2370173356673581e-01  2.5082735948592205e-01  2.7927336561163851e-01  3.0897047764906149e-01  3.3983290761053836e-01  3.7176471656733534e-01  4.0466586605034505e-01  4.3843711709816224e-01  4.7298345963829852e-01  5.0821615557723332e-01  5.4405367928033666e-01  5.8042188269264805e-01  6.1725367133827125e-01  6.5448840730907176e-01  6.9207118667039891e-01  7.2995208358574271e-01  7.6808541386407603e-01  8.0642904425652140e-01  8.4494375727466575e-01  8.8359267146396703e-01  9.2234071154698849e-01  9.6115411996748001e-01  1.0000000000000000e+00  -2.0000000000000000e+00  -1.6570038937325338e+00  -1.4173015013081234e+00  -1.2370907793013020e+00  -1.0946905306692190e+00  -9.7803306507898213e-01  -8.7981330253175527e-01  -7.9532226677669815e-01  -7.2137294211137859e-01  -6.5572314292374756e-01  -5.9674501589373885e-01  -5.4322572729489693e-01  -4.9424201130075490e-01  -4.4907832799381409e-01  -4.0717183267880369e-01  -3.6807441794185175e-01  -3.3142597245359895e-01  -2.9693522546373941e-01  -2.6436587015742558e-01  -2.3352647838824320e-01  -2.0426325236733503e-01  -1.7645503665353926e-01  -1.5001032550428281e-01  -1.2486631098749412e-01  -1.0099034856547252e-01  -7.8384574361333961e-02  -5.7095864626288600e-02  -3.7242355602493414e-02  -1.9220768050736449e-02  -3.3321065189318936e-03  1.1067267349697575e-02  2.4981977352604098e-02  3.9276673804850996e-02  5.4444438891888228e-02  7.0562378374098872e-02  8.7698516185160544e-02  1.0590787315200272e-01  1.2523992614627319e-01  1.4574457992906489e-01  1.6746610747188925e-01  1.9043747263913272e-01  2.1467658436921849e-01  2.4018332992192074e-01  2.6693799628524667e-01  2.9490163069383829e-01  3.2401825660676659e-01  3.5421848510860232e-01  3.8542383080331211e-01  4.1755100284367463e-01  4.5051561392992279e-01  4.8423502030352067e-01  5.1863024829561433e-01  5.5362711734711800e-01  5.8915673559490334e-01  6.2515554943798668e-01  6.6156510238850441e-01  6.9833162205549548e-01  7.3540551901566642e-01  7.7274085249408153e-01  8.1029479619412847e-01  8.4802712245577083e-01  8.8589971277887314e-01  9.2387609623591671e-01  9.6192101327246216e-01  1.0000000000000000e+00  -2.0000000000000000e+00  -1.6368953526546481e+00  -1.3880722185544008e+00  -1.2033838376055148e+00  -1.0587554254173079e+00  -9.4106824943210077e-01  -8.4250310735021861e-01  -7.5807865634478155e-01  -6.8445460325136720e-01  -6.1929843084064340e-01  -5.6092717227294164e-01  -5.0809353851182204e-01  -4.5985242894713435e-01  -4.1547446758842393e-01  -3.7438822783533954e-01  -3.3614060780571897e-01  -3.0036906879009656e-01  -2.6678186722267866e-01  -2.3514384168718347e-01  -2.0526620032611004e-01  -1.7699933430346315e-01  -1.5022811511671927e-01  -1.2486955676857717e-01  -1.0087333381298898e-01  -7.8226746138435180e-02  -5.6967548802680464e-02  -3.7210455613765091e-02  -1.9282468187212305e-02  -3.5616677583082605e-03  1.0589567432976902e-02  2.4219921986438093e-02  3.8205186706653724e-02  5.2974644446071285e-02  6.8589254285898529e-02  8.5110467152516758e-02  1.0259513006283799e-01  1.2109317556240998e-01  1.4064912747870587e-01  1.6130330483371319e-01  1.8308947339572268e-01  2.0603170719871619e-01  2.3014174101544652e-01  2.5541700546648199e-01  2.8183966503930552e-01  3.0937690427170134e-01  3.3798243297556430e-01  3.6759894541379207e-01  3.9816111869363613e-01  4.2959870059111849e-01  4.6183931547433388e-01  4.9481075935024693e-01  5.2844269995458537e-01  5.6266780621761803e-01  5.9742239290186083e-01  6.3264668843026772e-01  6.6828483075146294e-01  7.0428468014741208e-01  7.4059751792734596e-01  7.7717768090245543e-01  8.1398216557013958e-01  8.5097022357541585e-01  8.8810296095983809e-01  9.2534294734534339e-01  9.6265383688645145e-01  1.0000000000000000e+00  -2.0000000000000000e+00  -1.6181376299093084e+00  -1.3611675216769585e+00  -1.1726371150544157e+00  -1.0261888952877813e+00  -9.0773225030758831e-01  -8.0898419272219346e-01  -7.2472280521631349e-01  -6.5147496236731595e-01  -5.8683127961759640e-01  -5.2906275789981561e-01  -4.7689391677055815e-01  -4.2936223234298232e-01  -3.8572766191266838e-01  -3.4541252084074625e-01  -3.0796045725405957e-01  -2.7300785656608240e-01  -2.4026360107689110e-01  -2.0949463937252327e-01  -1.8051576561490928e-01  -1.5318263595457038e-01  -1.2738753373210240e-01  -1.0305793184120961e-01  -8.0158953029729696e-02  -5.8703927379894542e-02  -3.8787513332814570e-02  -2.0699920804928024e-02  -4.9321269254991038e-03  9.1171794436029855e-03  2.2528529518881079e-02  3.6226904562305595e-02 