<?xml version="1.0"?>
<VTKFile type="UnstructuredGrid"  version="0.1"  >
<UnstructuredGrid>
<Piece  NumberOfPoints="4225" NumberOfCells="8192">
<Points>
<DataArray  type="Float64"  NumberOfComponents="3"  format="ascii">0 0 0  0.015625 0 0  0.03125 0 0  0.046875 0 0  0.0625 0 0  0.078125 0 0  0.09375 0 0  0.109375 0 0  0.125 0 0  0.140625 0 0  0.15625 0 0  0.171875 0 0  0.1875 0 0  0.203125 0 0  0.21875 0 0  0.234375 0 0  0.25 0 0  0.265625 0 0  0.28125 0 0  0.296875 0 0  0.3125 0 0  0.328125 0 0  0.34375 0 0  0.359375 0 0  0.375 0 0  0.390625 0 0  0.40625 0 0  0.421875 0 0  0.4375 0 0  0.453125 0 0  0.46875 0 0  0.484375 0 0  0.5 0 0  0.515625 0 0  0.53125 0 0  0.546875 0 0  0.5625 0 0  0.578125 0 0  0.59375 0 0  0.609375 0 0  0.625 0 0  0.640625 0 0  0.65625 0 0  0.671875 0 0  0.6875 0 0  0.703125 0 0  0.71875 0 0  0.734375 0 0  0.75 0 0  0.765625 0 0  0.78125 0 0  0.796875 0 0  0.8125 0 0  0.828125 0 0  0.84375 0 0  0.859375 0 0  0.875 0 0  0.890625 0 0  0.90625 0 0  0.921875 0 0  0.9375 0 0  0.953125 0 0  0.96875 0 0  0.984375 0 0  1 0 0  0 0.015625 0  0.015625 0.015625 0  0.03125 0.015625 0  0.046875 0.015625 0  0.0625 0.015625 0  0.078125 0.015625 0  0.09375 0.015625 0  0.109375 0.015625 0  0.125 0.015625 0  0.140625 0.015625 0  0.15625 0.015625 0  0.171875 0.015625 0  0.1875 0.015625 0  0.203125 0.015625 0  0.21875 0.015625 0  0.234375 0.015625 0  0.25 0.015625 0  0.265625 0.015625 0  0.28125 0.015625 0  0.296875 0.015625 0  0.3125 0.015625 0  0.328125 0.015625 0  0.34375 0.015625 0  0.359375 0.015625 0  0.375 0.015625 0  0.390625 0.015625 0  0.40625 0.015625 0  0.421875 0.015625 0  0.4375 0.015625 0  0.453125 0.015625 0  0.46875 0.015625 0  0.484375 0.015625 0  0.5 0.015625 0  0.515625 0.015625 0  0.53125 0.015625 0  0.546875 0.015625 0  0.5625 0.015625 0  0.578125 0.015625 0  0.59375 0.015625 0  0.609375 0.015625 0  0.625 0.015625 0  0.640625 0.015625 0  0.65625 0.015625 0  0.671875 0.015625 0  0.6875 0.015625 0  0.703125 0.015625 0  0.71875 0.015625 0  0.734375 0.015625 0  0.75 0.015625 0  0.765625 0.015625 0  0.78125 0.015625 0  0.796875 0.015625 0  0.8125 0.015625 0  0.828125 0.015625 0  0.84375 0.015625 0  0.859375 0.015625 0  0.875 0.015625 0  0.890625 0.015625 0  0.90625 0.015625 0  0.921875 0.015625 0  0.9375 0.015625 0  0.953125 0.015625 0  0.96875 0.015625 0  0.984375 0.015625 0  1 0.015625 0  0 0.03125 0  0.015625 0.03125 0  0.03125 0.03125 0  0.046875 0.03125 0  0.0625 0.03125 0  0.078125 0.03125 0  0.09375 0.03125 0  0.109375 0.03125 0  0.125 0.03125 0  0.140625 0.03125 0  0.15625 0.03125 0  0.171875 0.03125 0  0.1875 0.03125 0  0.203125 0.03125 0  0.21875 0.03125 0  0.234375 0.03125 0  0.25 0.03125 0  0.265625 0.03125 0  0.28125 0.03125 0  0.296875 0.03125 0  0.3125 0.03125 0  0.328125 0.03125 0  0.34375 0.03125 0  0.359375 0.03125 0  0.375 0.03125 0  0.390625 0.03125 0  0.40625 0.03125 0  0.421875 0.03125 0  0.4375 0.03125 0  0.453125 0.03125 0  0.46875 0.03125 0  0.484375 0.03125 0  0.5 0.03125 0  0.515625 0.03125 0  0.53125 0.03125 0  0.546875 0.03125 0  0.5625 0.03125 0  0.578125 0.03125 0  0.59375 0.03125 0  0.609375 0.03125 0  0.625 0.03125 0  0.640625 0.03125 0  0.65625 0.03125 0  0.671875 0.03125 0  0.6875 0.03125 0  0.703125 0.03125 0  0.71875 0.03125 0  0.734375 0.03125 0  0.75 0.03125 0  0.765625 0.03125 0  0.78125 0.03125 0  0.796875 0.03125 0  0.8125 0.03125 0  0.828125 0.03125 0  0.84375 0.03125 0  0.859375 0.03125 0  0.875 0.03125 0  0.890625 0.03125 0  0.90625 0.03125 0  0.921875 0.03125 0  0.9375 0.03125 0  0.953125 0.03125 0  0.96875 0.03125 0  0.984375 0.03125 0  1 0.03125 0  0 0.046875 0  0.015625 0.046875 0  0.03125 0.046875 0  0.046875 0.046875 0  0.0625 0.046875 0  0.078125 0.046875 0  0.09375 0.046875 0  0.109375 0.046875 0  0.125 0.046875 0  0.140625 0.046875 0  0.15625 0.046875 0  0.171875 0.046875 0  0.1875 0.046875 0  0.203125 0.046875 0  0.21875 0.046875 0  0.234375 0.046875 0  0.25 0.046875 0  0.265625 0.046875 0  0.28125 0.046875 0  0.296875 0.046875 0  0.3125 0.046875 0  0.328125 0.046875 0  0.34375 0.046875 0  0.359375 0.046875 0  0.375 0.046875 0  0.390625 0.046875 0  0.40625 0.046875 0  0.421875 0.046875 0  0.4375 0.046875 0  0.453125 0.046875 0  0.46875 0.046875 0  0.484375 0.046875 0  0.5 0.046875 0  0.515625 0.046875 0  0.53125 0.046875 0  0.546875 0.046875 0  0.5625 0.046875 0  0.578125 0.046875 0  0.59375 0.046875 0  0.609375 0.046875 0  0.625 0.046875 0  0.640625 0.046875 0  0.65625 0.046875 0  0.671875 0.046875 0  0.6875 0.046875 0  0.703125 0.046875 0  0.71875 0.046875 0  0.734375 0.046875 0  0.75 0.046875 0  0.765625 0.046875 0  0.78125 0.046875 0  0.796875 0.046875 0  0.8125 0.046875 0  0.828125 0.046875 0  0.84375 0.046875 0  0.859375 0.046875 0  0.875 0.046875 0  0.890625 0.046875 0  0.90625 0.046875 0  0.921875 0.046875 0  0.9375 0.046875 0  0.953125 0.046875 0  0.96875 0.046875 0  0.984375 0.046875 0  1 0.046875 0  0 0.0625 0  0.015625 0.0625 0  0.03125 0.0625 0  0.046875 0.0625 0  0.0625 0.0625 0  0.078125 0.0625 0  0.09375 0.0625 0  0.109375 0.0625 0  0.125 0.0625 0  0.140625 0.0625 0  0.15625 0.0625 0  0.171875 0.0625 0  0.1875 0.0625 0  0.203125 0.0625 0  0.21875 0.0625 0  0.234375 0.0625 0  0.25 0.0625 0  0.265625 0.0625 0  0.28125 0.0625 0  0.296875 0.0625 0  0.3125 0.0625 0  0.328125 0.0625 0  0.34375 0.0625 0  0.359375 0.0625 0  0.375 0.0625 0  0.390625 0.0625 0  0.40625 0.0625 0  0.421875 0.0625 0  0.4375 0.0625 0  0.453125 0.0625 0  0.46875 0.0625 0  0.484375 0.0625 0  0.5 0.0625 0  0.515625 0.0625 0  0.53125 0.0625 0  0.546875 0.0625 0  0.5625 0.0625 0  0.578125 0.0625 0  0.59375 0.0625 0  0.609375 0.0625 0  0.625 0.0625 0  0.640625 0.0625 0  0.65625 0.0625 0  0.671875 0.0625 0  0.6875 0.0625 0  0.703125 0.0625 0  0.71875 0.0625 0  0.734375 0.0625 0  0.75 0.0625 0  0.765625 0.0625 0  0.78125 0.0625 0  0.796875 0.0625 0  0.8125 0.0625 0  0.828125 0.0625 0  0.84375 0.0625 0  0.859375 0.0625 0  0.875 0.0625 0  0.890625 0.0625 0  0.90625 0.0625 0  0.921875 0.0625 0  0.9375 0.0625 0  0.953125 0.0625 0  0.96875 0.0625 0  0.984375 0.0625 0  1 0.0625 0  0 0.078125 0  0.015625 0.078125 0  0.03125 0.078125 0  0.046875 0.078125 0  0.0625 0.078125 0  0.078125 0.078125 0  0.09375 0.078125 0  0.109375 0.078125 0  0.125 0.078125 0  0.140625 0.078125 0  0.15625 0.078125 0  0.171875 0.078125 0  0.1875 0.078125 0  0.203125 0.078125 0  0.21875 0.078125 0  0.234375 0.078125 0  0.25 0.078125 0  0.265625 0.078125 0  0.28125 0.078125 0  0.296875 0.078125 0  0.3125 0.078125 0  0.328125 0.078125 0  0.34375 0.078125 0  0.359375 0.078125 0  0.375 0.078125 0  0.390625 0.078125 0  0.40625 0.078125 0  0.421875 0.078125 0  0.4375 0.078125 0  0.453125 0.078125 0  0.46875 0.078125 0  0.484375 0.078125 0  0.5 0.078125 0  0.515625 0.078125 0  0.53125 0.078125 0  0.546875 0.078125 0  0.5625 0.078125 0  0.578125 0.078125 0  0.59375 0.078125 0  0.609375 0.078125 0  0.625 0.078125 0  0.640625 0.078125 0  0.65625 0.078125 0  0.671875 0.078125 0  0.6875 0.078125 0  0.703125 0.078125 0  0.71875 0.078125 0  0.734375 0.078125 0  0.75 0.078125 0  0.765625 0.078125 0  0.78125 0.078125 0  0.796875 0.078125 0  0.8125 0.078125 0  0.828125 0.078125 0  0.84375 0.078125 0  0.859375 0.078125 0  0.875 0.078125 0  0.890625 0.078125 0  0.90625 0.078125 0  0.921875 0.078125 0  0.9375 0.078125 0  0.953125 0.078125 0  0.96875 0.078125 0  0.984375 0.078125 0  1 0.078125 0  0 0.09375 0  0.015625 0.09375 0  0.03125 0.09375 0  0.046875 0.09375 0  0.0625 0.09375 0  0.078125 0.09375 0  0.09375 0.09375 0  0.109375 0.09375 0  0.125 0.09375 0  0.140625 0.09375 0  0.15625 0.09375 0  0.171875 0.09375 0  0.1875 0.09375 0  0.203125 0.09375 0  0.21875 0.09375 0  0.234375 0.09375 0  0.25 0.09375 0  0.265625 0.09375 0  0.28125 0.09375 0  0.296875 0.09375 0  0.3125 0.09375 0  0.328125 0.09375 0  0.34375 0.09375 0  0.359375 0.09375 0  0.375 0.09375 0  0.390625 0.09375 0  0.40625 0.09375 0  0.421875 0.09375 0  0.4375 0.09375 0  0.453125 0.09375 0  0.46875 0.09375 0  0.484375 0.09375 0  0.5 0.09375 0  0.515625 0.09375 0  0.53125 0.09375 0  0.546875 0.09375 0  0.5625 0.09375 0  0.578125 0.09375 0  0.59375 0.09375 0  0.609375 0.09375 0  0.625 0.09375 0  0.640625 0.09375 0  0.65625 0.09375 0  0.671875 0.09375 0  0.6875 0.09375 0  0.703125 0.09375 0  0.71875 0.09375 0  0.734375 0.09375 0  0.75 0.09375 0  0.765625 0.09375 0  0.78125 0.09375 0  0.796875 0.09375 0  0.8125 0.09375 0  0.828125 0.09375 0  0.84375 0.09375 0  0.859375 0.09375 0  0.875 0.09375 0  0.890625 0.09375 0  0.90625 0.09375 0  0.921875 0.09375 0  0.9375 0.09375 0  0.953125 0.09375 0  0.96875 0.09375 0  0.984375 0.09375 0  1 0.09375 0  0 0.109375 0  0.015625 0.109375 0  0.03125 0.109375 0  0.046875 0.109375 0  0.0625 0.109375 0  0.078125 0.109375 0  0.09375 0.109375 0  0.109375 0.109375 0  0.125 0.109375 0  0.140625 0.109375 0  0.15625 0.109375 0  0.171875 0.109375 0  0.1875 0.109375 0  0.203125 0.109375 0  0.21875 0.109375 0  0.234375 0.109375 0  0.25 0.109375 0  0.265625 0.109375 0  0.28125 0.109375 0  0.296875 0.109375 0  0.3125 0.109375 0  0.328125 0.109375 0  0.34375 0.109375 0  0.359375 0.109375 0  0.375 0.109375 0  0.390625 0.109375 0  0.40625 0.109375 0  0.421875 0.109375 0  0.4375 0.109375 0  0.453125 0.109375 0  0.46875 0.109375 0  0.484375 0.109375 0  0.5 0.109375 0  0.515625 0.109375 0  0.53125 0.109375 0  0.546875 0.109375 0  0.5625 0.109375 0  0.578125 0.109375 0  0.59375 0.109375 0  0.609375 0.109375 0  0.625 0.109375 0  0.640625 0.109375 0  0.65625 0.109375 0  0.671875 0.109375 0  0.6875 0.109375 0  0.703125 0.109375 0  0.71875 0.109375 0  0.734375 0.109375 0  0.75 0.109375 0  0.765625 0.109375 0  0.78125 0.109375 0  0.796875 0.109375 0  0.8125 0.109375 0  0.828125 0.109375 0  0.84375 0.109375 0  0.859375 0.109375 0  0.875 0.109375 0  0.890625 0.109375 0  0.90625 0.109375 0  0.921875 0.109375 0  0.9375 0.109375 0  0.953125 0.109375 0  0.96875 0.109375 0  0.984375 0.109375 0  1 0.109375 0  0 0.125 0  0.015625 0.125 0  0.03125 0.125 0  0.046875 0.125 0  0.0625 0.125 0  0.078125 0.125 0  0.09375 0.125 0  0.109375 0.125 0  0.125 0.12
[...]
<PointData  Scalars="f_6"> 
<DataArray  type="Float64"  Name="f_6"  format="ascii">-2.0000000000000000e+00  -1.9531250000000000e+00  -1.9062500000000000e+00  -1.8593750000000000e+00  -1.8125000000000000e+00  -1.7656250000000000e+00  -1.7187500000000000e+00  -1.6718750000000000e+00  -1.6250000000000000e+00  -1.5781250000000000e+00  -1.5312500000000000e+00  -1.4843750000000000e+00  -1.4375000000000000e+00  -1.3906250000000000e+00  -1.3437500000000000e+00  -1.2968750000000000e+00  -1.2500000000000000e+00  -1.2031250000000000e+00  -1.1562500000000000e+00  -1.1093750000000000e+00  -1.0625000000000000e+00  -1.0156250000000000e+00  -9.6874999999999989e-01  -9.2187500000000000e-01  -8.7500000000000000e-01  -8.2812500000000000e-01  -7.8125000000000000e-01  -7.3437500000000000e-01  -6.8750000000000000e-01  -6.4062500000000000e-01  -5.9375000000000000e-01  -5.4687500000000000e-01  -4.9999999999999994e-01  -4.5312500000000006e-01  -4.0625000000000000e-01  -3.5937500000000000e-01  -3.1250000000000000e-01  -2.6562500000000000e-01  -2.1874999999999997e-01  -1.7187500000000000e-01  -1.2499999999999999e-01  -7.8125000000000000e-02  -3.1250000000000000e-02  1.5625000000000000e-02  6.2500000000000000e-02  1.0937500000000000e-01  1.5625000000000000e-01  2.0312500000000000e-01  2.5000000000000000e-01  2.9687500000000000e-01  3.4375000000000000e-01  3.9062500000000000e-01  4.3750000000000000e-01  4.8437500000000000e-01  5.3125000000000000e-01  5.7812500000000000e-01  6.2500000000000000e-01  6.7187500000000000e-01  7.1875000000000000e-01  7.6562500000000000e-01  8.1250000000000000e-01  8.5937500000000000e-01  9.0625000000000000e-01  9.5312500000000000e-01  1.0000000000000000e+00  -2.0000000000000000e+00  -1.9132725597221227e+00  -1.8332365087658216e+00  -1.7584650172860530e+00  -1.6880360381721620e+00  -1.6212797269550638e+00  -1.5576764818049669e+00  -1.4968076146840714e+00  -1.4383276476025315e+00  -1.3819469035097014e+00  -1.3274196452610820e+00  -1.2745355180609401e+00  -1.2231131185222341e+00  -1.1729950176216775e+00  -1.1240438243815474e+00  -1.0761390210620294e+00  -1.0291743858093232e+00  -9.8305587201733380e-01  -9.3769984876746004e-01  -8.9303163096390126e-01  -8.4898424541084350e-01  -8.0549739270312026e-01  -7.6251657619329993e-01  -7.1999237980218189e-01  -6.7787988735831539e-01  -6.3613824933836605e-01  -5.9473042161842082e-01  -5.5362313001356567e-01  -5.1278715585544798e-01  -4.7219807156570309e-01  -4.3183749145545608e-01  -3.9169450854275950e-01  -3.5176592507157700e-01  -3.1205259603037805e-01  -2.7255247548360029e-01  -2.3326962069342586e-01  -1.9426586644613783e-01  -1.5564861600557728e-01  -1.1735262320820870e-01  -7.9135293087125247e-02  -4.4580515136036655e-02  -1.1929003459885202e-02  2.1762404501029176e-02  5.7385342974068068e-02  9.6133627706061653e-02  1.3800983724599983e-01  1.8130791777253255e-01  2.2537340901256567e-01  2.6991188453127013e-01  3.1477058101940147e-01  3.5986054291684277e-01  4.0512517501815071e-01  4.5052596279814350e-01  4.9603529260386481e-01  5.4163252269806195e-01  5.8730167963480018e-01  6.3303002923857477e-01  6.7880714756081306e-01  7.2462429214731583e-01  7.7047396107419575e-01  8.1634957317925716e-01  8.6224522837704087e-01  9.0815552161944746e-01  9.5407539277924347e-01  1.0000000000000000e+00  -2.0000000000000000e+00  -1.8765503604900267e+00  -1.7679273036005572e+00  -1.6707209033200170e+00  -1.5825812490317093e+00  -1.5018099093896347e+00  -1.4271320842119870e+00  -1.3575629353431724e+00  -1.2923244889549412e+00  -1.2307912284789480e+00  -1.1724529134285966e+00  -1.1168882763145160e+00  -1.0637458880037711e+00  -1.0127299165463441e+00  -9.6358932538718400e-01  -9.1610954850045312e-01  -8.7010598637249903e-01  -8.2541886443690016e-01  -7.8190912705916416e-01  -7.3945513015736020e-01  -6.9794995896428758e-01  -6.5729924373359938e-01  -6.1741938162449850e-01  -5.7823610191796848e-01  -5.3968333741851793e-01  -5.0170239069085121e-01  -4.6424141512787398e-01  -4.2725527882089881e-01  -3.9070596214530723e-01  -3.5456377071564377e-01  -3.1880977219644752e-01  -2.8343969309693662e-01  -2.4846805169809755e-01  -2.1392637549372076e-01  -1.7984314975732918e-01  -1.4623005950800189e-01  -1.1324199077189387e-01  -8.1392324774804639e-02  -5.0932809245600841e-02  -2.3025650334861231e-02  3.0231154962570969e-03  2.9784773738180031e-02  5.8754343713648634e-02  9.0820609202618002e-02  1.2663933060417867e-01  1.6522280350540516e-01  2.0559842483156460e-01  2.4714883374646010e-01  2.8950354809311357e-01  3.3243489662949333e-01  3.7579641562981891e-01  4.1948919435761645e-01  4.6344338357055848e-01  5.0760768491925445e-01  5.5194311855358247e-01  5.9641916660256444e-01  6.4101128975868515e-01  6.8569926885736310e-01  7.3046605995425429e-01  7.7529697897020977e-01  8.2017910326579213e-01  8.6510081870945921e-01  9.1005146532150527e-01  9.5502104949752653e-01  1.0000000000000000e+00  -2.0000000000000000e+00  -1.8423664440257790e+00  -1.7089872886521944e+00  -1.5935650811385746e+00  -1.4918839631558862e+00  -1.4009993564173095e+00  -1.3187800522578583e+00  -1.2436373824542333e+00  -1.1743578338287086e+00  -1.1099953662257502e+00  -1.0497996497865492e+00  -9.9316675356310724e-01  -9.3960435455056923e-01  -8.8870662470896633e-01  -8.4013574120877998e-01  -7.9360803602574292e-01  -7.4888346292487429e-01  -7.0575748076862910e-01  -6.6405472673965271e-01  -6.2362403672680322e-01  -5.8433449603544652e-01  -5.4607229246471733e-01  -5.0873820904023115e-01  -4.7224564423025833e-01  -4.3651908926317390e-01  -4.0149302927756342e-01  -3.6711127226040541e-01  -3.3332676009952000e-01  -3.0010201621968163e-01  -2.6741061309345987e-01  -2.3524052525566522e-01  -2.0360107217899845e-01  -1.7253587890595193e-01  -1.4213947607818997e-01  -1.1253323119777314e-01  -8.3715447703488155e-02  -5.5707673694686814e-02  -3.0674218378878133e-02  -7.7923528553754586e-03  1.4425026077373913e-02  3.6868901483195757e-02  6.1500657456589329e-02  8.9509489296635825e-02  1.2050341951857663e-01  1.5438028200262985e-01  1.9064362133987750e-01  2.2871414430186068e-01  2.6811995304859665e-01  3.0851857746523065e-01  3.4966904177563907e-01  3.9140102861532305e-01  4.3359180321193791e-01  4.7615069220721962e-01  5.1900894494901251e-01  5.6211309999444903e-01  6.0542057846319008e-01  6.4889669433623831e-01  6.9251257815569944e-01  7.3624369984212812e-01  7.8006879158659703e-01  8.2396904220424239e-01  8.6792747787349844e-01  9.1192847145958855e-01  9.5595733988935749e-01  1.0000000000000000e+00  -2.0000000000000000e+00  -1.8104106213794156e+00  -1.6554737914702859e+00  -1.5251250736089488e+00  -1.4129479902387498e+00  -1.3146379630257392e+00  -1.2271860616430150e+00  -1.1484169688499495e+00  -1.0767134538900782e+00  -1.0108446666635844e+00  -9.4985502028713698e-01  -8.9298990638685471e-01  -8.3964461427857118e-01  -7.8932833298988325e-01  -7.4163823211955571e-01  -6.9624044516669248e-01  -6.5285588515046544e-01  -6.1124951132127170e-01  -5.7122210623969971e-01  -5.3260391106096294e-01  -4.9524966055976388e-01  -4.5903469311194917e-01  -4.2385190668343925e-01  -3.8960940456672405e-01  -3.5622873378620939e-01  -3.2364366965145908e-01  -2.9179954229861832e-01  -2.6065313839479526e-01  -2.3017327638445492e-01  -2.0034236393913199e-01  -1.7115988798816617e-01  -1.4265059485329565e-01  -1.1488564573223434e-01  -8.8049442551173612e-02  -6.2567565045019369e-02  -3.8546381166316611e-02  -1.6772558842048937e-02  3.0998262262642851e-03  2.2725644109215268e-02  4.3105949051370634e-02  6.5129300470988430e-02  8.9839465308345676e-02  1.1727953649772868e-01  1.4730329757242291e-01  1.7973475654788668e-01  2.1425725554961436e-01  2.5049457798740415e-01  2.8809825668083500e-01  3.2678176694357314e-01  3.6632166439250952e-01  4.0654685384389627e-01  4.4732629766759274e-01  4.8855863709736924e-01  5.3016430267512693e-01  5.7207975801200972e-01  6.1425335291950844e-01  6.5664233096737856e-01  6.9921064958706813e-01  7.4192736967196182e-01  7.8476544532980852e-01  8.2770079609108160e-01  8.7071157912070396e-01  9.1377760275399311e-01  9.5687983860031456e-01  1.0000000000000000e+00  -2.0000000000000000e+00  -1.7804857148097881e+00  -1.6066820843111902e+00  -1.4639989231070005e+00  -1.3435932083289779e+00  -1.2397603781600737e+00  -1.1486371447854922e+00  -1.0675032112290093e+00  -9.9438103466369654e-01  -9.2779439031583522e-01  -8.6661639499141518e-01  -8.0997033107716643e-01  -7.5716289548325755e-01  -7.0763805521606327e-01  -6.6094439729760746e-01  -6.1671155283823131e-01  -5.7463286933172386e-01  -5.3445247888683800e-01  -4.9595552146735006e-01  -4.5896067604300744e-01  -4.2331441264924174e-01  -3.8888655494434593e-01  -3.5556686755246830e-01  -3.2326247675930592e-01  -2.9189601256533987e-01  -2.6140443404310787e-01  -2.3173856585497832e-01  -2.0286341434465702e-01  -1.7475934568925572e-01  -1.4742430765826303e-01  -1.2087776416562951e-01  -9.5168295486699445e-02  -7.0390958969605621e-02  -4.6675039680693906e-02  -2.5714340909084206e-02  -6.8001090253599515e-03  1.1136384317984345e-02  2.8776038394373468e-02  4.7487693623565863e-02  6.8148132326581776e-02  9.0702886041041667e-02  1.1544836680807628e-01  1.4246589381351032e-01  1.7169547772549967e-01  2.0299819106687955e-01  2.3615606632328925e-01  2.7090865541730647e-01  3.0699672874376632e-01  3.4418856923571733e-01  3.8228899500692959e-01  4.2113842470015977e-01  4.6060789651716705e-01  5.0059325583953784e-01  5.4100987064211647e-01  5.8178827645895448e-01  6.2287074423545530e-01  6.6420862702669936e-01  7.0576031955323304e-01  7.4748968392884219e-01  7.8936482396959340e-01  8.3135711770957144e-01  8.7344043976424290e-01  9.1559052183536527e-01  9.5778441175790752e-01  1.0000000000000000e+00  -2.0000000000000000e+00  -1.7524468896747352e+00  -1.5620598554251890e+00  -1.4091072189347913e+00  -1.2821883574124397e+00  -1.1742090468358908e+00  -1.0804985027784382e+00  -9.9784196791868207e-01  -9.2394619692081525e-01  -8.5712643922708631e-01  -7.9611418679890533e-01  -7.3993430082601930e-01  -6.8782378571358505e-01  -6.3917651837743350e-01  -5.9350468725886729e-01  -5.5041130013068451e-01  -5.0957021289238147e-01  -4.7071138806002671e-01  -4.3360986873238383e-01  -3.9807744767078096e-01  -3.6395633327227628e-01  -3.3111433028669301e-01  -2.9944120393004531e-01  -2.6884601023859284e-01  -2.3925527812344113e-01  -2.1061204394738878e-01  -1.8287587954520079e-01  -1.5602418974664070e-01  -1.3005513601710295e-01  -1.0499277222747176e-01  -8.0896436454567247e-02  -5.7881543626972419e-02  -3.6171426923144033e-02  -1.6884197199952818e-02  2.3326930567227192e-04  1.6719122645531447e-02  3.3448560714351594e-02  5.1046061690359079e-02  7.0300959664092916e-02  9.1296000590349063e-02  1.1408574455852019e-01  1.3878522206940741e-01  1.6544019422273668e-01  1.9401452844918579e-01  2.2440646367084266e-01  2.5646016325935683e-01  2.8998724861476616e-01  3.2479143364120705e-01  3.6068678624860007e-01  3.9750732169933234e-01  4.3510995343264558e-01  4.7337360786137783e-01  5.1219661910149838e-01  5.5149364759484720e-01  5.9119273294623575e-01  6.3123272053665880e-01  6.7156111335073121e-01  7.1213231767032259e-01  7.5290622252057993e-01  7.9384704891015145e-01  8.3492241101336750e-01  8.7610254039133106e-01  9.1735963306531731e-01  9.5866728659594991e-01  1.0000000000000000e+00  -2.0000000000000000e+00  -1.7261769172058781e+00  -1.5211589905157170e+00  -1.3595988727597326e+00  -1.2274830952332114e+00  -1.1163706727186986e+00  -1.0208411711798102e+00  -9.3723699890176115e-01  -8.6299074540695209e-01  -7.9624141130382120e-01  -7.3560368838285106e-01  -6.8002311450986364e-01  -6.2868177028240602e-01  -5.8093495074819290e-01  -5.3626749324627476e-01  -4.9426296403724784e-01  -4.5458148771959311e-01  -4.1694353043191074e-01  -3.8111788036418781e-01  -3.4691265551650335e-01  -3.1416854793075116e-01  -2.8275376618617803e-01  -2.5256031260579787e-01  -2.2350136277787536e-01  -1.9550963908878366e-01  -1.6853684434179930e-01  -1.4255452655911396e-01  -1.1755721212802027e-01  -9.3569167528434416e-02  -7.0657341150796998e-02  -4.8956977933039603e-02  -2.8779683645091401e-02  -1.0821629813845558e-02  5.2469778871736565e-03  2.0516612294320506e-02  3.6312044346659085e-02  5.3383124654263127e-02  7.1658687988618353e-02  9.1374082752097671e-02  1.1264916581220134e-01  1.3555886953328261e-01  1.6016658268829659e-01  1.8649513255884315e-01  2.1451597817766413e-01  2.4415297190794844e-01  2.7529087442852934e-01  3.0778874214119439e-01  3.4149497095769532e-01  3.7625982041814360e-01  4.1194355210915429e-01  4.4842045946971221e-01  4.8557996239420026e-01  5.2332596511023066e-01  5.6157536768953831e-01  6.0025628719448276e-01  6.3930629161421326e-01  6.7867078816924442e-01  7.1830161525674607e-01  7.5815583957300370e-01  7.9819473813706499e-01  8.3838293704241640e-01  8.7868767772239620e-01  9.1907818343862302e-01  9.5952510156057513e-01  1.0000000000000000e+00  -2.0000000000000000e+00  -1.7015749722190712e+00  -1.4836068375921945e+00  -1.3147894811704826e+00  -1.1784990599727292e+00  -1.0650105937985748e+00  -9.6821554275580424e-01  -8.8406256651504755e-01  -8.0974708785980665e-01  -7.4325932586687515e-01  -6.8311756693911618e-01  -6.2820326951198857e-01  -5.7765509256792047e-01  -5.3079852172813113e-01  -4.8709780999028834e-01  -4.4612236382282694e-01  -4.0752275143090266e-01  -3.7101328971780567e-01  -3.3635924210590368e-01  -3.0336733056138249e-01  -2.7187869769781203e-01  -2.4176374351457847e-01  -2.1291846184794672e-01  -1.8526204995230483e-01  -1.5873570173472784e-01  -1.3330272560333251e-01  -1.0895072729095981e-01  -8.5698005859694920e-02  -6.3608905981217434e-02  -4.2825427131633946e-02  -2.3734131042612665e-02  -6.7540328227035720e-03  8.5857001988943072e-03  2.3262163878617945e-02  3.8353645788985528e-02  5.4629317792521212e-02  7.2113205567423511e-02  9.0831482857753526e-02  1.1088751754347802e-01  1.3236771037307613e-01  1.5533398507411228e-01  1.7982710659165327e-01  2.0585777514667514e-01  2.3340127979467934e-01  2.6239857135475758e-01  2.9276162040561782e-01  3.2438187456378698e-01  3.5713988763023508e-01  3.9091397235712483e-01  4.2558660684942923e-01  4.6104836994284898e-01  4.9719981713548012e-01  5.3395191125568586e-01  5.7122557085859305e-01  6.0895075652794395e-01  6.4706537055646762e-01  6.8551413245528736e-01  7.2424751561441336e-01  7.6322078237762458e-01  8.0239312702268828e-01  8.4172692129683691e-01  8.8118705001721442e-01  9.2074032140620332e-01  9.6035493620772772e-01  1.0000000000000000e+00  -2.0000000000000000e+00  -1.6785511297447857e+00  -1.4490879746443339e+00  -1.2741196914655355e+00  -1.1344570669336012e+00  -1.0191649641262535e+00  -9.2150783284073090e-01  -8.3708558864822014e-01  -7.6288873294363657e-01  -6.9678177500073846e-01  -6.3720323803790369e-01  -5.8298264637147801e-01  -5.3322421614915338e-01  -4.8723035016405131e-01  -4.4444982470133665e-01  -4.0444181911106175e-01  -3.6685041942997970e-01  -3.3138623973508152e-01  -2.9781301090724660e-01  -2.6593773509956847e-01  -2.3560348771581432e-01  -2.0668427781130336e-01  -1.7908161794317529e-01  -1.5272264195378207e-01  -1.2755976869579699e-01  -1.0357215753914455e-01  -8.0770203641355454e-02  -5.9208453693526203e-02  -3.9019907181191887e-02  -2.0629778684820282e-02  -4.3312760509445587e-03  1.0462546087607492e-02  2.4717503474788884e-02  3.9360575446049685e-02  5.5006489190482462e-02  7.1738375467016766e-02  8.9608896965156185e-02  1.0866652033149421e-01  1.2897679419098476e-01  1.5060017306251305e-01  1.7358225379843714e-01  1.9795008345752918e-01  2.2370758164152479e-01  2.5083279449962032e-01  2.7927841331078485e-01  3.0897516127539737e-01  3.3983724807810056e-01  3.7176873264233301e-01  4.0466957453069141e-01  4.3844053298858893e-01  4.7298659631677437e-01  5.0821902494918569e-01  5.4405629191843952e-01  5.8042424796120384e-01  6.1725579750223258e-01  6.5449030162842692e-01  6.9207285548102426e-01  7.2995353236799509e-01  7.6808664730039333e-01  8.0643006627922675e-01  8.4494457110502852e-01  8.8359327964342127e-01  9.2234111596124835e-01  9.6115432186413285e-01  1.0000000000000000e+00  -2.0000000000000000e+00  -1.6570234854616459e+00  -1.4173319477524431e+00  -1.2371261839989860e+00  -1.0947270929746318e+00  -9.7806838367168603e-01  -8.7984589233992028e-01  -7.9535124404547319e-01  -7.2139782108024253e-01  -6.5574370368636226e-01  -5.9676121747743172e-01  -5.4323764971433997e-01  -4.9424981642503929e-01  -4.4908223281470355e-01  -4.0717209088344347e-01  -3.6807130713617681e-01  -3.3141978528853117e-01  -2.9692626348372592e-01  -2.6435443954080412e-01  -2.3351288696876948e-01  -2.0424780751709215e-01  -1.7643804394868093e-01  -1.4999208890714655e-01  -1.2484713687675082e-01  -1.0097055724723995e-01  -7.8364515372411542e-02  -5.7075906456006388e-02  -3.7222950261152903e-02  -1.9202916297697162e-02  -3.3162151078448749e-03  1.1081545067297409e-02  2.4995179974670493e-02  3.9289122981781326e-02  5.4456145240309492e-02  7.0573360059877827e-02  8.7708797919907183e-02  1.0591748649469024e-01  1.2524890731208241e-01  1.4575296582645378e-01  1.6747393388755430e-01  1.9044477359959397e-01  2.1468339179850160e-01  2.4018967346227438e-01  2.6694390325149236e-01  2.9490712611336423e-01  3.2402336330708603e-01  3.5422322383088456e-01  3.8542822033030422e-01  4.1755506013471932e-01  4.5051935425746092e-01  4.8423845738647359e-01  5.1863339442604917e-01  5.5362998350768289e-01  5.8915933156555012e-01  6.2515788389135540e-01  6.6156718297398320e-01  6.9833345547238856e-01  7.3540711107614931e-01  7.7274220817672612e-01  8.1029591968879677e-01  8.4802801720062870e-01  8.8590038149019334e-01  9.2387654093123650e-01  9.6192123528755502e-01  1.0000000000000000e+00  -2.0000000000000000e+00  -1.6369165664056697e+00  -1.3881046043501537e+00  -1.2034208682746184e+00  -1.0587930466228872e+00  -9.4110399757599006e-01  -8.4253552703424062e-01  -7.5810693396236717e-01  -6.8447833737441255e-01  -6.1931748690727695e-01  -5.6094158935507399e-01  -5.0810346865404155e-01  -4.5985809719590126e-01  -4.1547614538526062e-01  -3.7438621519335874e-01  -3.3613522136727558e-01  -3.0036063390128176e-01  -2.6677071280012254e-01  -2.3513029702958552e-01  -2.0525059321810729e-01  -1.7698198985860689e-01  -1.5020935501718632e-01  -1.2484969949370271e-01  -1.0085269975082674e-01  -7.8205680167534625e-02  -5.6946475810955306e-02  -3.7189882126861501e-02  -1.9263268225410843e-02  -3.5442981389561309e-03  1.0605306777908047e-02  2.4234505767126921e-02  3.8218977142016150e-02  5.2987663237356424e-02  6.8601522473529145e-02  8.5122007888812204e-02  1.0260596965804389e-01  1.2110334378161516e-01  1.4065865659569146e-01  1.6131222791519370e-01  1.8309782306165634e-01  2.0603951491388284e-01  2.3014903667460898e-01  2.5542381715757873e-01  2.8184601893071048e-01  3.0938282458409377e-01  3.3798794200869803e-01  3.6760406360804726e-01  3.9816586471328097e-01  4.2960309142042075e-01  4.6184336652006197e-01  4.9481448454560994e-01  5.2844611186085422e-01  5.6267091612069298e-01  5.9742521090195833e-01  6.3264922352365571e-01  6.6828709090376104e-01  7.0428667235839737e-01  7.4059924828748747e-01  7.7717915464156517e-01  8.1398338709860474e-01  8.5097119651849651e-01  8.8810368818548646e-01  9.2534343098594951e-01  9.6265407835485073e-01  1.0000000000000000e+00  -2.0000000000000000e+00  -1.6181604058052479e+00  -1.3612017136300163e+00  -1.1726755965125508e+00  -1.0262273920199194e+00  -9.0776826151730317e-01  -8.0901630833642446e-01  -7.2475028996543212e-01  -6.5149750207120460e-01  -5.8684882448380571e-01  -5.2907542428665300e-01  -4.7690192472414206e-01  -4.2936586540608990e-01  -3.8572724104809264e-01  -3.4540838746758268e-01  -3.0795296229481500e-01  -2.7299735356745652e-01  -2.4025044218589181e-01  -2.0947917337291358e-01  -1.8049833742426688e-01  -1.5316358698685834e-01  -1.2736720247468758e-01  -1.0303665450419694e-01  -8.0137068041852277e-02  -5.8681810145799887e-02  -3.8765786273817306e-02  -2.0679417070597065e-02  -4.9132928977473180e-03  9.1344452944094913e-03  2.2544585481966525e-02  3.6242085228899414e-02 