<?xml version="1.0"?>
<VTKFile type="UnstructuredGrid"  version="0.1"  >
<UnstructuredGrid>
<Piece  NumberOfPoints="4225" NumberOfCells="8192">
<Points>
<DataArray  type="Float64"  NumberOfComponents="3"  format="ascii">0 0 0  0.015625 0 0  0.03125 0 0  0.046875 0 0  0.0625 0 0  0.078125 0 0  0.09375 0 0  0.109375 0 0  0.125 0 0  0.140625 0 0  0.15625 0 0  0.171875 0 0  0.1875 0 0  0.203125 0 0  0.21875 0 0  0.234375 0 0  0.25 0 0  0.265625 0 0  0.28125 0 0  0.296875 0 0  0.3125 0 0  0.328125 0 0  0.34375 0 0  0.359375 0 0  0.375 0 0  0.390625 0 0  0.40625 0 0  0.421875 0 0  0.4375 0 0  0.453125 0 0  0.46875 0 0  0.484375 0 0  0.5 0 0  0.515625 0 0  0.53125 0 0  0.546875 0 0  0.5625 0 0  0.578125 0 0  0.59375 0 0  0.609375 0 0  0.625 0 0  0.640625 0 0  0.65625 0 0  0.671875 0 0  0.6875 0 0  0.703125 0 0  0.71875 0 0  0.734375 0 0  0.75 0 0  0.765625 0 0  0.78125 0 0  0.796875 0 0  0.8125 0 0  0.828125 0 0  0.84375 0 0  0.859375 0 0  0.875 0 0  0.890625 0 0  0.90625 0 0  0.921875 0 0  0.9375 0 0  0.953125 0 0  0.96875 0 0  0.984375 0 0  1 0 0  0 0.015625 0  0.015625 0.015625 0  0.03125 0.015625 0  0.046875 0.015625 0  0.0625 0.015625 0  0.078125 0.015625 0  0.09375 0.015625 0  0.109375 0.015625 0  0.125 0.015625 0  0.140625 0.015625 0  0.15625 0.015625 0  0.171875 0.015625 0  0.1875 0.015625 0  0.203125 0.015625 0  0.21875 0.015625 0  0.234375 0.015625 0  0.25 0.015625 0  0.265625 0.015625 0  0.28125 0.015625 0  0.296875 0.015625 0  0.3125 0.015625 0  0.328125 0.015625 0  0.34375 0.015625 0  0.359375 0.015625 0  0.375 0.015625 0  0.390625 0.015625 0  0.40625 0.015625 0  0.421875 0.015625 0  0.4375 0.015625 0  0.453125 0.015625 0  0.46875 0.015625 0  0.484375 0.015625 0  0.5 0.015625 0  0.515625 0.015625 0  0.53125 0.015625 0  0.546875 0.015625 0  0.5625 0.015625 0  0.578125 0.015625 0  0.59375 0.015625 0  0.609375 0.015625 0  0.625 0.015625 0  0.640625 0.015625 0  0.65625 0.015625 0  0.671875 0.015625 0  0.6875 0.015625 0  0.703125 0.015625 0  0.71875 0.015625 0  0.734375 0.015625 0  0.75 0.015625 0  0.765625 0.015625 0  0.78125 0.015625 0  0.796875 0.015625 0  0.8125 0.015625 0  0.828125 0.015625 0  0.84375 0.015625 0  0.859375 0.015625 0  0.875 0.015625 0  0.890625 0.015625 0  0.90625 0.015625 0  0.921875 0.015625 0  0.9375 0.015625 0  0.953125 0.015625 0  0.96875 0.015625 0  0.984375 0.015625 0  1 0.015625 0  0 0.03125 0  0.015625 0.03125 0  0.03125 0.03125 0  0.046875 0.03125 0  0.0625 0.03125 0  0.078125 0.03125 0  0.09375 0.03125 0  0.109375 0.03125 0  0.125 0.03125 0  0.140625 0.03125 0  0.15625 0.03125 0  0.171875 0.03125 0  0.1875 0.03125 0  0.203125 0.03125 0  0.21875 0.03125 0  0.234375 0.03125 0  0.25 0.03125 0  0.265625 0.03125 0  0.28125 0.03125 0  0.296875 0.03125 0  0.3125 0.03125 0  0.328125 0.03125 0  0.34375 0.03125 0  0.359375 0.03125 0  0.375 0.03125 0  0.390625 0.03125 0  0.40625 0.03125 0  0.421875 0.03125 0  0.4375 0.03125 0  0.453125 0.03125 0  0.46875 0.03125 0  0.484375 0.03125 0  0.5 0.03125 0  0.515625 0.03125 0  0.53125 0.03125 0  0.546875 0.03125 0  0.5625 0.03125 0  0.578125 0.03125 0  0.59375 0.03125 0  0.609375 0.03125 0  0.625 0.03125 0  0.640625 0.03125 0  0.65625 0.03125 0  0.671875 0.03125 0  0.6875 0.03125 0  0.703125 0.03125 0  0.71875 0.03125 0  0.734375 0.03125 0  0.75 0.03125 0  0.765625 0.03125 0  0.78125 0.03125 0  0.796875 0.03125 0  0.8125 0.03125 0  0.828125 0.03125 0  0.84375 0.03125 0  0.859375 0.03125 0  0.875 0.03125 0  0.890625 0.03125 0  0.90625 0.03125 0  0.921875 0.03125 0  0.9375 0.03125 0  0.953125 0.03125 0  0.96875 0.03125 0  0.984375 0.03125 0  1 0.03125 0  0 0.046875 0  0.015625 0.046875 0  0.03125 0.046875 0  0.046875 0.046875 0  0.0625 0.046875 0  0.078125 0.046875 0  0.09375 0.046875 0  0.109375 0.046875 0  0.125 0.046875 0  0.140625 0.046875 0  0.15625 0.046875 0  0.171875 0.046875 0  0.1875 0.046875 0  0.203125 0.046875 0  0.21875 0.046875 0  0.234375 0.046875 0  0.25 0.046875 0  0.265625 0.046875 0  0.28125 0.046875 0  0.296875 0.046875 0  0.3125 0.046875 0  0.328125 0.046875 0  0.34375 0.046875 0  0.359375 0.046875 0  0.375 0.046875 0  0.390625 0.046875 0  0.40625 0.046875 0  0.421875 0.046875 0  0.4375 0.046875 0  0.453125 0.046875 0  0.46875 0.046875 0  0.484375 0.046875 0  0.5 0.046875 0  0.515625 0.046875 0  0.53125 0.046875 0  0.546875 0.046875 0  0.5625 0.046875 0  0.578125 0.046875 0  0.59375 0.046875 0  0.609375 0.046875 0  0.625 0.046875 0  0.640625 0.046875 0  0.65625 0.046875 0  0.671875 0.046875 0  0.6875 0.046875 0  0.703125 0.046875 0  0.71875 0.046875 0  0.734375 0.046875 0  0.75 0.046875 0  0.765625 0.046875 0  0.78125 0.046875 0  0.796875 0.046875 0  0.8125 0.046875 0  0.828125 0.046875 0  0.84375 0.046875 0  0.859375 0.046875 0  0.875 0.046875 0  0.890625 0.046875 0  0.90625 0.046875 0  0.921875 0.046875 0  0.9375 0.046875 0  0.953125 0.046875 0  0.96875 0.046875 0  0.984375 0.046875 0  1 0.046875 0  0 0.0625 0  0.015625 0.0625 0  0.03125 0.0625 0  0.046875 0.0625 0  0.0625 0.0625 0  0.078125 0.0625 0  0.09375 0.0625 0  0.109375 0.0625 0  0.125 0.0625 0  0.140625 0.0625 0  0.15625 0.0625 0  0.171875 0.0625 0  0.1875 0.0625 0  0.203125 0.0625 0  0.21875 0.0625 0  0.234375 0.0625 0  0.25 0.0625 0  0.265625 0.0625 0  0.28125 0.0625 0  0.296875 0.0625 0  0.3125 0.0625 0  0.328125 0.0625 0  0.34375 0.0625 0  0.359375 0.0625 0  0.375 0.0625 0  0.390625 0.0625 0  0.40625 0.0625 0  0.421875 0.0625 0  0.4375 0.0625 0  0.453125 0.0625 0  0.46875 0.0625 0  0.484375 0.0625 0  0.5 0.0625 0  0.515625 0.0625 0  0.53125 0.0625 0  0.546875 0.0625 0  0.5625 0.0625 0  0.578125 0.0625 0  0.59375 0.0625 0  0.609375 0.0625 0  0.625 0.0625 0  0.640625 0.0625 0  0.65625 0.0625 0  0.671875 0.0625 0  0.6875 0.0625 0  0.703125 0.0625 0  0.71875 0.0625 0  0.734375 0.0625 0  0.75 0.0625 0  0.765625 0.0625 0  0.78125 0.0625 0  0.796875 0.0625 0  0.8125 0.0625 0  0.828125 0.0625 0  0.84375 0.0625 0  0.859375 0.0625 0  0.875 0.0625 0  0.890625 0.0625 0  0.90625 0.0625 0  0.921875 0.0625 0  0.9375 0.0625 0  0.953125 0.0625 0  0.96875 0.0625 0  0.984375 0.0625 0  1 0.0625 0  0 0.078125 0  0.015625 0.078125 0  0.03125 0.078125 0  0.046875 0.078125 0  0.0625 0.078125 0  0.078125 0.078125 0  0.09375 0.078125 0  0.109375 0.078125 0  0.125 0.078125 0  0.140625 0.078125 0  0.15625 0.078125 0  0.171875 0.078125 0  0.1875 0.078125 0  0.203125 0.078125 0  0.21875 0.078125 0  0.234375 0.078125 0  0.25 0.078125 0  0.265625 0.078125 0  0.28125 0.078125 0  0.296875 0.078125 0  0.3125 0.078125 0  0.328125 0.078125 0  0.34375 0.078125 0  0.359375 0.078125 0  0.375 0.078125 0  0.390625 0.078125 0  0.40625 0.078125 0  0.421875 0.078125 0  0.4375 0.078125 0  0.453125 0.078125 0  0.46875 0.078125 0  0.484375 0.078125 0  0.5 0.078125 0  0.515625 0.078125 0  0.53125 0.078125 0  0.546875 0.078125 0  0.5625 0.078125 0  0.578125 0.078125 0  0.59375 0.078125 0  0.609375 0.078125 0  0.625 0.078125 0  0.640625 0.078125 0  0.65625 0.078125 0  0.671875 0.078125 0  0.6875 0.078125 0  0.703125 0.078125 0  0.71875 0.078125 0  0.734375 0.078125 0  0.75 0.078125 0  0.765625 0.078125 0  0.78125 0.078125 0  0.796875 0.078125 0  0.8125 0.078125 0  0.828125 0.078125 0  0.84375 0.078125 0  0.859375 0.078125 0  0.875 0.078125 0  0.890625 0.078125 0  0.90625 0.078125 0  0.921875 0.078125 0  0.9375 0.078125 0  0.953125 0.078125 0  0.96875 0.078125 0  0.984375 0.078125 0  1 0.078125 0  0 0.09375 0  0.015625 0.09375 0  0.03125 0.09375 0  0.046875 0.09375 0  0.0625 0.09375 0  0.078125 0.09375 0  0.09375 0.09375 0  0.109375 0.09375 0  0.125 0.09375 0  0.140625 0.09375 0  0.15625 0.09375 0  0.171875 0.09375 0  0.1875 0.09375 0  0.203125 0.09375 0  0.21875 0.09375 0  0.234375 0.09375 0  0.25 0.09375 0  0.265625 0.09375 0  0.28125 0.09375 0  0.296875 0.09375 0  0.3125 0.09375 0  0.328125 0.09375 0  0.34375 0.09375 0  0.359375 0.09375 0  0.375 0.09375 0  0.390625 0.09375 0  0.40625 0.09375 0  0.421875 0.09375 0  0.4375 0.09375 0  0.453125 0.09375 0  0.46875 0.09375 0  0.484375 0.09375 0  0.5 0.09375 0  0.515625 0.09375 0  0.53125 0.09375 0  0.546875 0.09375 0  0.5625 0.09375 0  0.578125 0.09375 0  0.59375 0.09375 0  0.609375 0.09375 0  0.625 0.09375 0  0.640625 0.09375 0  0.65625 0.09375 0  0.671875 0.09375 0  0.6875 0.09375 0  0.703125 0.09375 0  0.71875 0.09375 0  0.734375 0.09375 0  0.75 0.09375 0  0.765625 0.09375 0  0.78125 0.09375 0  0.796875 0.09375 0  0.8125 0.09375 0  0.828125 0.09375 0  0.84375 0.09375 0  0.859375 0.09375 0  0.875 0.09375 0  0.890625 0.09375 0  0.90625 0.09375 0  0.921875 0.09375 0  0.9375 0.09375 0  0.953125 0.09375 0  0.96875 0.09375 0  0.984375 0.09375 0  1 0.09375 0  0 0.109375 0  0.015625 0.109375 0  0.03125 0.109375 0  0.046875 0.109375 0  0.0625 0.109375 0  0.078125 0.109375 0  0.09375 0.109375 0  0.109375 0.109375 0  0.125 0.109375 0  0.140625 0.109375 0  0.15625 0.109375 0  0.171875 0.109375 0  0.1875 0.109375 0  0.203125 0.109375 0  0.21875 0.109375 0  0.234375 0.109375 0  0.25 0.109375 0  0.265625 0.109375 0  0.28125 0.109375 0  0.296875 0.109375 0  0.3125 0.109375 0  0.328125 0.109375 0  0.34375 0.109375 0  0.359375 0.109375 0  0.375 0.109375 0  0.390625 0.109375 0  0.40625 0.109375 0  0.421875 0.109375 0  0.4375 0.109375 0  0.453125 0.109375 0  0.46875 0.109375 0  0.484375 0.109375 0  0.5 0.109375 0  0.515625 0.109375 0  0.53125 0.109375 0  0.546875 0.109375 0  0.5625 0.109375 0  0.578125 0.109375 0  0.59375 0.109375 0  0.609375 0.109375 0  0.625 0.109375 0  0.640625 0.109375 0  0.65625 0.109375 0  0.671875 0.109375 0  0.6875 0.109375 0  0.703125 0.109375 0  0.71875 0.109375 0  0.734375 0.109375 0  0.75 0.109375 0  0.765625 0.109375 0  0.78125 0.109375 0  0.796875 0.109375 0  0.8125 0.109375 0  0.828125 0.109375 0  0.84375 0.109375 0  0.859375 0.109375 0  0.875 0.109375 0  0.890625 0.109375 0  0.90625 0.109375 0  0.921875 0.109375 0  0.9375 0.109375 0  0.953125 0.109375 0  0.96875 0.109375 0  0.984375 0.109375 0  1 0.109375 0  0 0.125 0  0.015625 0.125 0  0.03125 0.125 0  0.046875 0.125 0  0.0625 0.125 0  0.078125 0.125 0  0.09375 0.125 0  0.109375 0.125 0  0.125 0.12
[...]
<PointData  Scalars="f_6"> 
<DataArray  type="Float64"  Name="f_6"  format="ascii">-5.6000000000000000e+01  -5.4687500000000000e+01  -5.3375000000000000e+01  -5.2062500000000000e+01  -5.0750000000000000e+01  -4.9437500000000000e+01  -4.8125000000000000e+01  -4.6812500000000000e+01  -4.5500000000000000e+01  -4.4187500000000000e+01  -4.2875000000000000e+01  -4.1562500000000000e+01  -4.0250000000000000e+01  -3.8937499999449436e+01  -3.7625000000000000e+01  -3.6312500000000000e+01  -3.5000000000000000e+01  -3.3687500000000000e+01  -3.2375000000000000e+01  -3.1062500000000000e+01  -2.9750000000000000e+01  -2.8437500000000000e+01  -2.7125000000000000e+01  -2.5812500000000000e+01  -2.4500000000000000e+01  -2.3187500000000000e+01  -2.1875000000000000e+01  -2.0562500000000000e+01  -1.9250000000000000e+01  -1.7937500000000000e+01  -1.6625000000000000e+01  -1.5312500000000000e+01  -1.4000000000000000e+01  -1.2687500000000000e+01  -1.1375000000000000e+01  -1.0062500000000000e+01  -8.7500000000000000e+00  -7.4375000000000311e+00  -6.1250000000000000e+00  -4.8125000000000000e+00  -3.5000000000000000e+00  -2.1875000000000000e+00  -8.7500000000000000e-01  4.3750000000000000e-01  1.7500000000000000e+00  3.0624999994471125e+00  4.3750000000000000e+00  5.6875000000000000e+00  7.0000000000000000e+00  8.3125000000000000e+00  9.6250000000000000e+00  1.0937500000000000e+01  1.2250000000000000e+01  1.3562499993480742e+01  1.4875000000000000e+01  1.6187500000000000e+01  1.7500000000000000e+01  1.8812500000000000e+01  2.0125000000000000e+01  2.1437500000000000e+01  2.2750000000000000e+01  2.4062500000000000e+01  2.5375000000000000e+01  2.6687500000000000e+01  2.8000000000000000e+01  -5.6000000000000000e+01  -3.1447747972047944e+06  2.2809024351028059e+07  -4.4024448347252682e+06  9.7052206037039007e+05  -1.9178725187722256e+06  5.2202601421562058e+05  -1.9995122540332251e+06  7.7973856803121241e+06  -8.8976886059625670e+06  1.3422636975742972e+07  -2.6874504426471874e+07  5.6374038517115917e+06  -3.2866890105745536e+06  6.9558420613619937e+06  -2.1636818962055802e+07  2.7001101711821444e+07  -3.0669507721025497e+07  5.0323552125486784e+07  -1.0142864925045431e+08  3.1149260090628780e+07  -5.6890576996868253e+06  7.3519729771638592e+05  1.1525175500364319e+04  -4.8299951802535763e+05  1.6669906801863853e+06  -5.8902022150246138e+06  -6.1167235446465365e+05  4.8245504400884360e+06  -1.9665082118055221e+07  1.0406686293035287e+07  -2.8943890209032404e+06  1.7060200927687681e+06  -2.6481231104618330e+06  5.9838085673082247e+06  -6.3953752558516664e+05  1.3113237845349440e+05  -1.8760554010596496e+05  5.0638479731859494e+05  -5.6178968314251199e+05  1.9386638428942906e+05  -8.6542596729057739e+04  -3.2050619076756746e+04  2.6105963808545202e+04  -1.2044841654342571e+10  -1.0773169393658264e+10  -8.7612359749858913e+09  -9.1979100839219265e+09  -7.2579252177570620e+09  -4.4374843708565063e+09  -4.0131920512699194e+09  -4.3496378022604084e+09  -4.3950410717876377e+09  -7.1065696671398506e+09  3.9646809772797771e+09  1.5321596715186571e+10  -3.6403118140053053e+09  -1.8379892113439777e+09  -2.1149759176373668e+09  -1.6972374281857858e+09  -1.7070914767781725e+09  7.0981157185374117e+08  -1.0566259409962103e+09  -2.7667739779388118e+08  2.8000000000000000e+01  -5.6000000000000000e+01  4.2636589247991960e+05  -3.0392777554994550e+09  -5.4521646203888245e+09  -5.6340507522962780e+09  -9.0476906781472607e+09  -4.7301007775664034e+09  -4.3087326689827995e+09  -1.6074102123174465e+10  -2.1980953884620762e+10  -7.2319321564765167e+09  -6.7830955601664734e+09  -7.4266579550837965e+09  -1.2916075124593861e+10  -1.8135139759336639e+10  -2.2245348479621673e+09  -7.5102650677500467e+09  1.0219961522268468e+11  -7.9741693136710159e+10  -7.9881586761065826e+10  -7.1295217659433990e+10  -1.0946588912148677e+11  -2.3000491925398645e+11  -4.1877451087110364e+11  -7.8865752502156543e+11  -1.4978057147983538e+12  -5.2004896025475703e+12  5.2276157048521667e+11  -1.9227600761556950e+10  -5.9609986169242409e+10  9.1916187005431614e+09  2.6428392940940742e+10  3.3732946819895178e+11  -1.4114212022112122e+11  1.8490609015105198e+10  5.3946963231018433e+10  7.2937324088458618e+10  -3.6901527135376160e+10  1.7395812341085793e+10  -1.1703563615293237e+11  1.9826774319890587e+10  6.0839339917857605e+11  5.4054674304311325e+10  -5.6969090182542862e+10  -6.6025746727603531e+10  8.8327661260449692e+10  -3.8922014806197510e+10  4.6867178573957710e+10  5.2946419452999023e+10  -2.7911894124234375e+10  -2.4983881665241577e+10  1.1126544326766476e+10  -3.7136734684550562e+09  3.4085558485476627e+09  -9.8979234164832554e+09  -2.0593094642091644e+10  7.7673820814330971e+08  -1.1202008571139559e+10  -6.3932053443972893e+09  -7.4521525611711636e+09  6.9957233060488701e+09  -1.8240246066568336e+10  7.0391604357892857e+09  -3.5781740088665104e+08  2.8000000000000000e+01  -5.6000000000000000e+01  -7.5151405614548933e+05  5.6679764604330957e+08  7.9188153616567822e+09  4.3489446416851062e+08  -5.9069992616742039e+09  1.7309920590504993e+10  -1.5860653978397148e+10  2.8170970297250626e+10  -1.3822301283733124e+11  -7.3404275075554667e+09  1.1602074589459988e+10  -9.1332040062816181e+09  -8.8539741467227402e+09  7.3502496940838882e+10  -1.0679733313189162e+11  1.9049228826684418e+11  1.4279534316282082e+09  -2.8539782440379803e+10  9.7624841321071289e+10  -1.1580928814535370e+11  5.3501478332630737e+10  -2.3791128489000818e+11  5.0672538136779834e+11  -1.6944401512725916e+12  2.0937237425466960e+12  3.5845514297881182e+12  -9.7438101338501331e+11  -6.1614246687058728e+11  1.5430564116038877e+12  4.6277945903148773e+11  -2.6998612355952795e+11  -1.3374889278255281e+11  -2.9575633471427441e+11  -1.4821640260737177e+11  -3.0804859400395972e+11  -3.5015565356041473e+11  8.1230779321477600e+10  -1.5294178820462006e+11  -3.0182700519108209e+11  1.0122533329640369e+11  3.6119554749735260e+10  -4.0219115254906897e+11  -1.4685110960272107e+11  3.8855139195980103e+10  -1.2650687148076248e+11  -1.2681617052753845e+10  -3.0574444855228546e+10  -3.5202759605336655e+10  -2.6032176375947289e+10  1.1870848782531422e+10  -2.8578781539845535e+10  -3.0200937081984772e+10  -9.7078180556198692e+09  -1.1181438565147270e+10  -1.9610040724548363e+10  -1.7228206433972523e+10  -1.5199835405472647e+10  2.9576659836826584e+10  -1.5532130347808353e+10  -8.5663621906352509e+10  -2.7633290469522038e+09  -9.8489691991766500e+08  -7.2862813845020027e+09  2.8000000000000000e+01  -5.6000000000000000e+01  7.1171177768628008e+05  -3.1619986674810214e+09  -2.7227079532035172e+10  -9.6373047525777130e+09  1.0764362573298986e+10  -3.1478910019977837e+10  -5.9422052980803429e+10  -9.4841150678020737e+10  7.8482973008961136e+10  9.6548925523231293e+10  -8.5578873384899002e+10  -3.3695509118135828e+11  3.1859833381910223e+11  -1.5979397872432001e+11  3.5995060154173307e+09  -1.2217452335804031e+11  -2.1911375516515283e+11  2.6991346519301175e+11  -3.7062424853158490e+11  2.7250530772548602e+11  -1.5952223569804385e+12  1.3056712364730068e+12  -5.6768302638455254e+12  3.8140117074020591e+12  -7.2807004021228784e+11  -2.8603293537130410e+12  -3.6430949261639146e+12  -3.3472301763898105e+12  2.6282555985859697e+12  -5.0098388307391035e+12  -5.6518279095486377e+11  -1.1376615804412104e+10  1.9342081813545364e+10  -8.5686485783745148e+10  1.0654750235949285e+12  5.4207666969458765e+11  -1.8273216707025859e+12  -3.5879443691923151e+11  6.0056480682192642e+10  -1.2692736776902859e+10  -1.0883629710642407e+11  -5.8602770957085352e+11  1.3876620561254703e+11  -1.5415105176161292e+11  -1.2945069798694734e+11  3.4968000439565163e+10  -4.5356437802854980e+10  9.6309429575405979e+09  -4.2189817666936600e+08  1.9645379957462231e+10  -2.8435724083058601e+10  5.1541628313157593e+10  -1.3233374659631952e+10  2.0886274421118195e+10  1.2524669052085255e+10  7.5411280419176483e+10  -1.6459103879144432e+10  -1.7427983814531052e+10  -9.6741174238334541e+09  7.0854191795021729e+10  -1.0081036181225082e+10  6.0758101974558697e+09  1.6072367492008850e+10  2.8000000000000000e+01  -5.6000000000000000e+01  -7.1860888030091545e+05  -7.7036455151637859e+09  2.4580316861483679e+09  -5.4247967404235373e+09  -3.3838835869856116e+11  3.0647928605121875e+11  -2.0455673274582416e+11  2.0334096474580438e+11  1.3058100073294121e+11  -2.8047474245334619e+11  -1.1230322805135443e+11  4.4222376054234113e+11  -1.6041429176187314e+11  -3.5692179959621991e+11  7.0128280458507849e+11  -7.8741799435834912e+11  5.6740190785795984e+11  -1.1833554978177358e+12  7.8582556401712549e+11  -7.3702621274431177e+11  1.9814544732510210e+12  -1.8777755283218765e+12  4.6279156392681211e+12  2.3418763097347754e+12  8.7692881169697693e+11  3.8565744132833320e+12  -4.5790185269597797e+11  4.5076773468032100e+12  -4.0717108721884922e+12  6.6858779072664185e+11  -1.3264768279366734e+11  6.7742159658299023e+11  -1.4321667144134021e+11  -7.0209909390781509e+10  -1.9694288890867035e+11  3.3594106970015363e+11  -7.0387974713435913e+10  1.0271553264484058e+12  1.2436578018167035e+11  -1.8134598315195293e+10  -4.8182547987439185e+11  -1.3326818663103085e+11  -8.2337770043311127e+10  -6.0216776491789413e+10  1.4849968249595923e+11  -1.0375064519434961e+11  -2.4871287292044670e+10  -2.5494325146602615e+10  -2.0923356492043671e+10  -1.9217856428160820e+10  -3.3190166541649734e+10  -4.2376166221453415e+10  -3.9093594432092316e+10  -2.5969154433743042e+10  -2.2752594491604485e+10  -2.7957396599950859e+10  -3.1006640003980797e+10  1.8589269368775955e+10  -1.9592976792684227e+10  4.4232871243286924e+09  -5.2603319099306648e+10  -3.5274776567243884e+11  3.7750030296269829e+10  2.8000000000000000e+01  -5.6000000000000000e+01  6.9194010529650748e+05  -7.4798152318655367e+09  1.0892195825015216e+09  1.2999985244506165e+10  7.6982883496739746e+10  -3.3612310397369595e+10  9.9556468603794324e+08  -4.1967684647322357e+10  -3.8919549447165564e+11  -4.8762578597098648e+10  4.2710358248957373e+11  -6.7787693625043774e+11  -1.8204247918663446e+11  7.7087690064872974e+11  -8.7241349661490979e+11  5.6529181343132581e+11  -5.5633561977270129e+11  3.7968511116187280e+11  -4.1865814429034949e+11  5.6653006794647314e+11  -2.3718077833970010e+12  2.0439991403684814e+12  -2.8368325292072490e+12  -2.9755866329367993e+11  -1.7282517708594265e+12  -1.9422217739051709e+12  -4.2940835559487354e+12  -1.3006767585784937e+12  1.8743335043942261e+12  -4.7961413632814410e+11  -9.0332346987108536e+10  7.0904404710607208e+10  -5.2673766127356494e+11  5.3930194450131482e+11  1.8445378783854517e+11  7.4565995663925879e+11  2.8413015882625537e+11  4.2023820915611267e+11  -3.3616942433914172e+11  7.2382801976952344e+11  3.0794776637774453e+12  -5.1970130360159033e+11  -4.7258392699883537e+09  2.8821062641456886e+10  -6.4908653260108910e+10  -5.2624562621982697e+10  4.3457714027797043e+10  1.1271435523010342e+10  -5.4673733577441540e+09  8.4172317035212564e+09  -6.8218226804068050e+09  2.2039548566127930e+10  5.8467090192280472e+10  6.4643132416068573e+10  3.8823249145456093e+10  6.9505892791634007e+09  -1.3607241722576355e+10  -2.8348755214288918e+10  3.5474868189337959e+09  -9.1357921140614834e+09  -4.1646406359520621e+09  2.3892779223026306e+10  -3.3590359436915558e+10  2.8000000000000000e+01  -5.6000000000000000e+01  -7.3600851680576371e+05  -9.2749460008069344e+09  -4.2741579798352509e+09  -1.0425592358379457e+11  1.7692614688304718e+11  4.6261712343250244e+10  -3.3728304243306946e+11  4.4009326299519873e+11  -1.5441326946274507e+09  4.4290693746593042e+11  -6.0208801962904883e+11  -1.8480348528691284e+11  8.6607764167860632e+11  -1.2429246868739739e+12  8.8329248887343005e+11  -1.0479891467095774e+12  9.1153180365170264e+11  -1.1740477754895068e+12  1.0454594276339716e+12  -2.0694284698785271e+12  3.0366606663195571e+12  -1.6357967119538857e+12  2.5950371770897344e+12  1.9252651940221641e+12  1.3445441938945563e+11  1.9839428248986997e+12  -1.6367394245736592e+12  4.2524132010449121e+12  -9.0307462652832544e+11  -2.3190421835966113e+11  1.7741349192832990e+11  -5.6516495941011621e+11  -3.7483229848166565e+11  1.7760651535467505e+11  -4.2888913591491504e+11  -3.2864272931774402e+11  -2.4502571781947033e+10  -1.5404011241328311e+11  -2.8893087492927179e+11  -3.6108126966576245e+11  -3.0995095724340808e+11  -2.6490450909375952e+12  5.1233352566910132e+11  1.1675491319115179e+11  -2.7419916945687428e+10  7.6166148331656952e+10  -1.0553628726130063e+11  6.5106855886342139e+11  1.4882168880210852e+12  1.4660882556072480e+12  1.2860899127472495e+12  9.5517791179355518e+11  5.9946524671089441e+11  3.0757697204705182e+11  1.1281973252079297e+11  4.1579534684678822e+09  -2.8885748573919063e+09  3.7661766906985184e+10  -1.5675936386614029e+10  -7.8446362339358597e+09  4.8794515856696272e+08  6.7199519992896595e+09  1.7170309621028719e+09  2.8000000000000000e+01  -5.6000000000000000e+01  1.3263292914405959e+06  -5.5105207776208344e+09  -1.0935028368933743e+10  1.4900985669013504e+11  -1.7397686900269525e+11  -2.9423058285346521e+11  4.2540261395949536e+11  -7.6210759388670386e+11  -2.1788756323333675e+10  -2.7550164427523486e+11  -2.1996056467563889e+10  1.0551142127499956e+12  -1.1056318799474355e+12  -2.5979378072744083e+10  6.2903659798615125e+11  -3.9146355488795740e+11  -8.9954652193512048e+11  6.7213725074236731e+11  -8.5368169672774072e+11  2.1661348152654004e+12  -1.6609396219009463e+12  1.6905436723383706e+12  -1.1021812279418613e+12  -2.9928376791975708e+12  -2.1059110600418738e+12  -5.6321916536528262e+12  3.0702102108423770e+12  -5.4485473300216876e+11  -4.8299457932256372e+11  -5.8864724131196851e+11  -4.9359697778122485e+11  -3.8956688067135156e+11  1.0850851728646762e+11  -5.4146220539074744e+11  -3.6053101727734802e+11  3.6506374436237572e+10  -2.7462971708160059e+11  -1.9246317697824295e+11  -2.1112700898329272e+11  2.3364333813522583e+11  -5.0846509238038782e+11  3.5953023720744194e+12  -2.1597741675970251e+11  -6.3890489269630280e+10  -6.4394549133637177e+10  -1.2683861481964009e+11  -1.3857403893305060e+11  -2.3612922304618465e+10  -1.4811022581168892e+12  -2.0068143425295498e+12  -1.8041364457338364e+12  -1.5838730812453254e+12  -1.2605813589320391e+12  -9.0548996733052161e+11  -5.9992456419094519e+11  -3.7925083239914856e+11  -2.4418130525251947e+11  -8.7875150053034821e+10  -5.8845141608696434e+10  -3.5376107574569618e+10  -1.2393616496245298e+10  -8.0391240300693588e+09  7.2984998101841755e+09  2.8000000000000000e+01  -5.6000000000000000e+01  3.1750636620980152e+06  7.3265708685465107e+09  -1.4449711441837027e+10  -2.2737255222558447e+11  -1.5918161101842163e+11  4.8602417305512628e+11  -3.3221633930581354e+11  6.6709808935719507e+11  -8.3713197668085266e+10  -1.0957296804135558e+11  8.9393413173421982e+10  -9.0783908066570874e+11  2.5689842820770515e+10  7.9471685044880280e+10  -8.3947232345652924e+10  -6.3839664503299829e+11  1.0190200490167476e+12  -4.4709397751469995e+11  1.7835713030016226e+12  -2.5500388313137793e+12  1.4835706594982539e+12  -1.3167700970429751e+12  -1.0484571881182893e+12  8.4668659612235016e+10  3.7370548693707809e+10  6.2847785852150957e+12  -1.1797053864466182e+11  -1.3926723464607144e+11  -4.9327268594239246e+11  -6.2197114773044678e+11  3.0644172264602686e+11  -5.8955966741619806e+09  -3.6170030299525000e+11  -4.1342662944666309e+11  5.0866000113428528e+11  -1.6072500089558989e+12  2.6431808038143149e+12  -2.6596148840718994e+11  3.7959225931282910e+11  -2.3296747363164008e+11  -1.1043922292427583e+12  -1.0761353318736145e+12  -2.8300024742577454e+11  1.5292348298612372e+11  -1.4997582942776093e+11  -1.0033817960272600e+11  3.1908527582426514e+10  -1.3103465451907224e+11  -1.3015511084773111e+11  1.4060527259462629e+12  1.2143031193592046e+12  1.3446150502886562e+12  1.2455838613531587e+12  9.5306437494694922e+11  6.2741277442756140e+11  3.6726197952244995e+11  1.9483615920580048e+11  9.8272891750657471e+10  3.5204938080244629e+10  4.3101119077793694e+09  -9.8943310246973343e+09  -2.5780049892006805e+10  -6.3097983723943329e+09  2.8000000000000000e+01  -5.6000000000000000e+01  -7.7915324088256080e+06  -1.5129321864796335e+08  -1.4574304492865705e+10  1.5980073025323950e+11  3.5939326058596130e+11  -1.5646235557051379e+11  6.0846078146263086e+11  -3.8624991296702588e+11  -2.1203026357269232e+11  1.2415021164187692e+11  -2.5110687329808673e+11  1.3188354376539154e+11  1.7085406842377246e+11  7.8968497538468964e+10  -4.3703899848622058e+11  7.1158215391087378e+11  -5.7474303063516553e+11  4.2405977423579309e+11  -1.0869260024958303e+12  1.7461087405250728e+12  4.2698646135689552e+10  -1.3790077529133633e+12  1.0751586745530280e+11  1.2871651279268579e+11  6.9264214924328687e+11  6.8259960960514137e+10  8.2271709637855078e+11  -2.2033972409879761e+12  8.5957148805512231e+11  -5.3235443105002197e+11  -1.0953317224855708e+12  -2.5494061902546150e+10  -3.6132445696535522e+11  2.6447891682557281e+11  -1.1545458380435627e+12  -4.3974944945008893e+11  -2.6393271943227887e+11  -3.8693525209307129e+12  -2.0657352714937149e+11  -3.0043025905269653e+11  5.7164805261707153e+11  -3.8862165194250409e+11  5.3926094912808148e+11  -2.1656078149365619e+11  -1.4686346446656714e+11  3.3393016633022362e+10  -1.2280228832626591e+11  -1.4393335097454773e+11  -5.6539453976260857e+10  -1.8761005017597891e+12  -1.5758077338775562e+12  -1.6155903146691240e+12  -1.5535516232677437e+12  -1.2450024642447646e+12  -8.4364198905832324e+11  -5.0976233504480164e+11  -2.9173107594420605e+11  -1.5773730305466199e+11  -8.3731872540220642e+10  -4.6279221737514420e+10  -2.7834850202057209e+10  7.6872344248126698e+09  -6.2139839588764515e+09  2.8000000000000000e+01  -5.6000000000000000e+01  2.8770699775318573e+06  -2.0073151992432796e+10  5.0620402782295570e+09  -5.2681794788141205e+10  -1.9453833283267242e+11  -7.9408126522848053e+09  -3.6530866295234827e+11  4.8848549445932989e+09  5.8119605511439575e+10  -1.0314636346314621e+11  2.9250544766427317e+09  -1.8415870770460394e+11  -1.2145062966540384e+10  -6.5426227295738599e+11  2.7260781296341223e+11  -7.6144135938958252e+11  3.5040978418536578e+11  -1.9704939685475095e+11  -6.6321819681737866e+11  5.4408649681201447e+10  -1.6174143875364487e+12  1.5097020905697430e+11  -1.0658637334481316e+12  -4.3592935577794586e+11  -8.8090753986055389e+10  2.8759307291743945e+11  -6.8582321837389966e+11  1.8783444048827637e+11  -5.1870664040405933e+11  -4.7836868519642920e+11  1.7999616104049640e+11  2.1048372433738922e+11  -1.7485452033355475e+11  -4.9444931532128857e+11  -4.1647665188430853e+11  -8.0776437776471875e+11  2.2837196780592938e+11  -1.3438351623065079e+11  2.6715396098458418e+12  6.1983509099735557e+12  -2.2173508816513379e+12  -4.3074968470647681e+11  -4.6160300273543988e+11  3.8936865185056274e+11  -4.5011495416848106e+10  -1.2347103710960629e+11  -1.2643012164349014e+11  -1.5703086696271873e+09  1.1584574967397036e+12  1.1922196925860369e+12  8.5608569779318896e+11  1.0842608938015239e+12  1.1617818608772441e+12  1.0647691226836549e+12  7.1061720608404016e+11  3.6657976844141797e+11  1.4783324134114252e+11  3.9084936133977341e+10  -6.6705080376655025e+09  -1.9084136571588821e+10  2.5904862738141937e+09  -1.3605839752692919e+10  -6.4577082873379183e+09  2.8000000000000000e+01  -5.6000000000000000e+01  -3.3868351783394092e+06  -1.1469187157019110e+10  -1.3425195272621777e+10  -4.1645454020850296e+10  -1.6022806305504248e+09  -2.7425926973454279e+11  1.1408705694952609e+11  1.0102830797698135e+11  -2.6102619989034906e+11  9.2896254103305176e+10  -2.2953287491302929e+10  -4.5083865223868414e+11  -1.4273511761673480e+11  5.2679344805294849e+11  -2.7617816560654578e+11  7.0851383768852405e+11  -4.6642225945168860e+11  -5.2884918793630615e+11  6.7868042257742065e+11  -2.4106279200222916e+11  1.5772137223086877e+11  8.8808435215052551e+11  -8.0492083736660547e+11  5.2363584666179321e+11  -1.2093682861555310e+11  -2.5880552015467148e+10  -6.0845945269422083e+11  2.0907694913425726e+11  -5.32065