<?xml version="1.0"?>
<VTKFile type="UnstructuredGrid"  version="0.1"  >
<UnstructuredGrid>
<Piece  NumberOfPoints="4225" NumberOfCells="8192">
<Points>
<DataArray  type="Float64"  NumberOfComponents="3"  format="ascii">0 0 0  0.015625 0 0  0.03125 0 0  0.046875 0 0  0.0625 0 0  0.078125 0 0  0.09375 0 0  0.109375 0 0  0.125 0 0  0.140625 0 0  0.15625 0 0  0.171875 0 0  0.1875 0 0  0.203125 0 0  0.21875 0 0  0.234375 0 0  0.25 0 0  0.265625 0 0  0.28125 0 0  0.296875 0 0  0.3125 0 0  0.328125 0 0  0.34375 0 0  0.359375 0 0  0.375 0 0  0.390625 0 0  0.40625 0 0  0.421875 0 0  0.4375 0 0  0.453125 0 0  0.46875 0 0  0.484375 0 0  0.5 0 0  0.515625 0 0  0.53125 0 0  0.546875 0 0  0.5625 0 0  0.578125 0 0  0.59375 0 0  0.609375 0 0  0.625 0 0  0.640625 0 0  0.65625 0 0  0.671875 0 0  0.6875 0 0  0.703125 0 0  0.71875 0 0  0.734375 0 0  0.75 0 0  0.765625 0 0  0.78125 0 0  0.796875 0 0  0.8125 0 0  0.828125 0 0  0.84375 0 0  0.859375 0 0  0.875 0 0  0.890625 0 0  0.90625 0 0  0.921875 0 0  0.9375 0 0  0.953125 0 0  0.96875 0 0  0.984375 0 0  1 0 0  0 0.015625 0  0.015625 0.015625 0  0.03125 0.015625 0  0.046875 0.015625 0  0.0625 0.015625 0  0.078125 0.015625 0  0.09375 0.015625 0  0.109375 0.015625 0  0.125 0.015625 0  0.140625 0.015625 0  0.15625 0.015625 0  0.171875 0.015625 0  0.1875 0.015625 0  0.203125 0.015625 0  0.21875 0.015625 0  0.234375 0.015625 0  0.25 0.015625 0  0.265625 0.015625 0  0.28125 0.015625 0  0.296875 0.015625 0  0.3125 0.015625 0  0.328125 0.015625 0  0.34375 0.015625 0  0.359375 0.015625 0  0.375 0.015625 0  0.390625 0.015625 0  0.40625 0.015625 0  0.421875 0.015625 0  0.4375 0.015625 0  0.453125 0.015625 0  0.46875 0.015625 0  0.484375 0.015625 0  0.5 0.015625 0  0.515625 0.015625 0  0.53125 0.015625 0  0.546875 0.015625 0  0.5625 0.015625 0  0.578125 0.015625 0  0.59375 0.015625 0  0.609375 0.015625 0  0.625 0.015625 0  0.640625 0.015625 0  0.65625 0.015625 0  0.671875 0.015625 0  0.6875 0.015625 0  0.703125 0.015625 0  0.71875 0.015625 0  0.734375 0.015625 0  0.75 0.015625 0  0.765625 0.015625 0  0.78125 0.015625 0  0.796875 0.015625 0  0.8125 0.015625 0  0.828125 0.015625 0  0.84375 0.015625 0  0.859375 0.015625 0  0.875 0.015625 0  0.890625 0.015625 0  0.90625 0.015625 0  0.921875 0.015625 0  0.9375 0.015625 0  0.953125 0.015625 0  0.96875 0.015625 0  0.984375 0.015625 0  1 0.015625 0  0 0.03125 0  0.015625 0.03125 0  0.03125 0.03125 0  0.046875 0.03125 0  0.0625 0.03125 0  0.078125 0.03125 0  0.09375 0.03125 0  0.109375 0.03125 0  0.125 0.03125 0  0.140625 0.03125 0  0.15625 0.03125 0  0.171875 0.03125 0  0.1875 0.03125 0  0.203125 0.03125 0  0.21875 0.03125 0  0.234375 0.03125 0  0.25 0.03125 0  0.265625 0.03125 0  0.28125 0.03125 0  0.296875 0.03125 0  0.3125 0.03125 0  0.328125 0.03125 0  0.34375 0.03125 0  0.359375 0.03125 0  0.375 0.03125 0  0.390625 0.03125 0  0.40625 0.03125 0  0.421875 0.03125 0  0.4375 0.03125 0  0.453125 0.03125 0  0.46875 0.03125 0  0.484375 0.03125 0  0.5 0.03125 0  0.515625 0.03125 0  0.53125 0.03125 0  0.546875 0.03125 0  0.5625 0.03125 0  0.578125 0.03125 0  0.59375 0.03125 0  0.609375 0.03125 0  0.625 0.03125 0  0.640625 0.03125 0  0.65625 0.03125 0  0.671875 0.03125 0  0.6875 0.03125 0  0.703125 0.03125 0  0.71875 0.03125 0  0.734375 0.03125 0  0.75 0.03125 0  0.765625 0.03125 0  0.78125 0.03125 0  0.796875 0.03125 0  0.8125 0.03125 0  0.828125 0.03125 0  0.84375 0.03125 0  0.859375 0.03125 0  0.875 0.03125 0  0.890625 0.03125 0  0.90625 0.03125 0  0.921875 0.03125 0  0.9375 0.03125 0  0.953125 0.03125 0  0.96875 0.03125 0  0.984375 0.03125 0  1 0.03125 0  0 0.046875 0  0.015625 0.046875 0  0.03125 0.046875 0  0.046875 0.046875 0  0.0625 0.046875 0  0.078125 0.046875 0  0.09375 0.046875 0  0.109375 0.046875 0  0.125 0.046875 0  0.140625 0.046875 0  0.15625 0.046875 0  0.171875 0.046875 0  0.1875 0.046875 0  0.203125 0.046875 0  0.21875 0.046875 0  0.234375 0.046875 0  0.25 0.046875 0  0.265625 0.046875 0  0.28125 0.046875 0  0.296875 0.046875 0  0.3125 0.046875 0  0.328125 0.046875 0  0.34375 0.046875 0  0.359375 0.046875 0  0.375 0.046875 0  0.390625 0.046875 0  0.40625 0.046875 0  0.421875 0.046875 0  0.4375 0.046875 0  0.453125 0.046875 0  0.46875 0.046875 0  0.484375 0.046875 0  0.5 0.046875 0  0.515625 0.046875 0  0.53125 0.046875 0  0.546875 0.046875 0  0.5625 0.046875 0  0.578125 0.046875 0  0.59375 0.046875 0  0.609375 0.046875 0  0.625 0.046875 0  0.640625 0.046875 0  0.65625 0.046875 0  0.671875 0.046875 0  0.6875 0.046875 0  0.703125 0.046875 0  0.71875 0.046875 0  0.734375 0.046875 0  0.75 0.046875 0  0.765625 0.046875 0  0.78125 0.046875 0  0.796875 0.046875 0  0.8125 0.046875 0  0.828125 0.046875 0  0.84375 0.046875 0  0.859375 0.046875 0  0.875 0.046875 0  0.890625 0.046875 0  0.90625 0.046875 0  0.921875 0.046875 0  0.9375 0.046875 0  0.953125 0.046875 0  0.96875 0.046875 0  0.984375 0.046875 0  1 0.046875 0  0 0.0625 0  0.015625 0.0625 0  0.03125 0.0625 0  0.046875 0.0625 0  0.0625 0.0625 0  0.078125 0.0625 0  0.09375 0.0625 0  0.109375 0.0625 0  0.125 0.0625 0  0.140625 0.0625 0  0.15625 0.0625 0  0.171875 0.0625 0  0.1875 0.0625 0  0.203125 0.0625 0  0.21875 0.0625 0  0.234375 0.0625 0  0.25 0.0625 0  0.265625 0.0625 0  0.28125 0.0625 0  0.296875 0.0625 0  0.3125 0.0625 0  0.328125 0.0625 0  0.34375 0.0625 0  0.359375 0.0625 0  0.375 0.0625 0  0.390625 0.0625 0  0.40625 0.0625 0  0.421875 0.0625 0  0.4375 0.0625 0  0.453125 0.0625 0  0.46875 0.0625 0  0.484375 0.0625 0  0.5 0.0625 0  0.515625 0.0625 0  0.53125 0.0625 0  0.546875 0.0625 0  0.5625 0.0625 0  0.578125 0.0625 0  0.59375 0.0625 0  0.609375 0.0625 0  0.625 0.0625 0  0.640625 0.0625 0  0.65625 0.0625 0  0.671875 0.0625 0  0.6875 0.0625 0  0.703125 0.0625 0  0.71875 0.0625 0  0.734375 0.0625 0  0.75 0.0625 0  0.765625 0.0625 0  0.78125 0.0625 0  0.796875 0.0625 0  0.8125 0.0625 0  0.828125 0.0625 0  0.84375 0.0625 0  0.859375 0.0625 0  0.875 0.0625 0  0.890625 0.0625 0  0.90625 0.0625 0  0.921875 0.0625 0  0.9375 0.0625 0  0.953125 0.0625 0  0.96875 0.0625 0  0.984375 0.0625 0  1 0.0625 0  0 0.078125 0  0.015625 0.078125 0  0.03125 0.078125 0  0.046875 0.078125 0  0.0625 0.078125 0  0.078125 0.078125 0  0.09375 0.078125 0  0.109375 0.078125 0  0.125 0.078125 0  0.140625 0.078125 0  0.15625 0.078125 0  0.171875 0.078125 0  0.1875 0.078125 0  0.203125 0.078125 0  0.21875 0.078125 0  0.234375 0.078125 0  0.25 0.078125 0  0.265625 0.078125 0  0.28125 0.078125 0  0.296875 0.078125 0  0.3125 0.078125 0  0.328125 0.078125 0  0.34375 0.078125 0  0.359375 0.078125 0  0.375 0.078125 0  0.390625 0.078125 0  0.40625 0.078125 0  0.421875 0.078125 0  0.4375 0.078125 0  0.453125 0.078125 0  0.46875 0.078125 0  0.484375 0.078125 0  0.5 0.078125 0  0.515625 0.078125 0  0.53125 0.078125 0  0.546875 0.078125 0  0.5625 0.078125 0  0.578125 0.078125 0  0.59375 0.078125 0  0.609375 0.078125 0  0.625 0.078125 0  0.640625 0.078125 0  0.65625 0.078125 0  0.671875 0.078125 0  0.6875 0.078125 0  0.703125 0.078125 0  0.71875 0.078125 0  0.734375 0.078125 0  0.75 0.078125 0  0.765625 0.078125 0  0.78125 0.078125 0  0.796875 0.078125 0  0.8125 0.078125 0  0.828125 0.078125 0  0.84375 0.078125 0  0.859375 0.078125 0  0.875 0.078125 0  0.890625 0.078125 0  0.90625 0.078125 0  0.921875 0.078125 0  0.9375 0.078125 0  0.953125 0.078125 0  0.96875 0.078125 0  0.984375 0.078125 0  1 0.078125 0  0 0.09375 0  0.015625 0.09375 0  0.03125 0.09375 0  0.046875 0.09375 0  0.0625 0.09375 0  0.078125 0.09375 0  0.09375 0.09375 0  0.109375 0.09375 0  0.125 0.09375 0  0.140625 0.09375 0  0.15625 0.09375 0  0.171875 0.09375 0  0.1875 0.09375 0  0.203125 0.09375 0  0.21875 0.09375 0  0.234375 0.09375 0  0.25 0.09375 0  0.265625 0.09375 0  0.28125 0.09375 0  0.296875 0.09375 0  0.3125 0.09375 0  0.328125 0.09375 0  0.34375 0.09375 0  0.359375 0.09375 0  0.375 0.09375 0  0.390625 0.09375 0  0.40625 0.09375 0  0.421875 0.09375 0  0.4375 0.09375 0  0.453125 0.09375 0  0.46875 0.09375 0  0.484375 0.09375 0  0.5 0.09375 0  0.515625 0.09375 0  0.53125 0.09375 0  0.546875 0.09375 0  0.5625 0.09375 0  0.578125 0.09375 0  0.59375 0.09375 0  0.609375 0.09375 0  0.625 0.09375 0  0.640625 0.09375 0  0.65625 0.09375 0  0.671875 0.09375 0  0.6875 0.09375 0  0.703125 0.09375 0  0.71875 0.09375 0  0.734375 0.09375 0  0.75 0.09375 0  0.765625 0.09375 0  0.78125 0.09375 0  0.796875 0.09375 0  0.8125 0.09375 0  0.828125 0.09375 0  0.84375 0.09375 0  0.859375 0.09375 0  0.875 0.09375 0  0.890625 0.09375 0  0.90625 0.09375 0  0.921875 0.09375 0  0.9375 0.09375 0  0.953125 0.09375 0  0.96875 0.09375 0  0.984375 0.09375 0  1 0.09375 0  0 0.109375 0  0.015625 0.109375 0  0.03125 0.109375 0  0.046875 0.109375 0  0.0625 0.109375 0  0.078125 0.109375 0  0.09375 0.109375 0  0.109375 0.109375 0  0.125 0.109375 0  0.140625 0.109375 0  0.15625 0.109375 0  0.171875 0.109375 0  0.1875 0.109375 0  0.203125 0.109375 0  0.21875 0.109375 0  0.234375 0.109375 0  0.25 0.109375 0  0.265625 0.109375 0  0.28125 0.109375 0  0.296875 0.109375 0  0.3125 0.109375 0  0.328125 0.109375 0  0.34375 0.109375 0  0.359375 0.109375 0  0.375 0.109375 0  0.390625 0.109375 0  0.40625 0.109375 0  0.421875 0.109375 0  0.4375 0.109375 0  0.453125 0.109375 0  0.46875 0.109375 0  0.484375 0.109375 0  0.5 0.109375 0  0.515625 0.109375 0  0.53125 0.109375 0  0.546875 0.109375 0  0.5625 0.109375 0  0.578125 0.109375 0  0.59375 0.109375 0  0.609375 0.109375 0  0.625 0.109375 0  0.640625 0.109375 0  0.65625 0.109375 0  0.671875 0.109375 0  0.6875 0.109375 0  0.703125 0.109375 0  0.71875 0.109375 0  0.734375 0.109375 0  0.75 0.109375 0  0.765625 0.109375 0  0.78125 0.109375 0  0.796875 0.109375 0  0.8125 0.109375 0  0.828125 0.109375 0  0.84375 0.109375 0  0.859375 0.109375 0  0.875 0.109375 0  0.890625 0.109375 0  0.90625 0.109375 0  0.921875 0.109375 0  0.9375 0.109375 0  0.953125 0.109375 0  0.96875 0.109375 0  0.984375 0.109375 0  1 0.109375 0  0 0.125 0  0.015625 0.125 0  0.03125 0.125 0  0.046875 0.125 0  0.0625 0.125 0  0.078125 0.125 0  0.09375 0.125 0  0.109375 0.125 0  0.125 0.12
[...]
<PointData  Scalars="f_6"> 
<DataArray  type="Float64"  Name="f_6"  format="ascii">-2.0000000000000000e+00  -1.9531250000000000e+00  -1.9062500000000000e+00  -1.8593750000000000e+00  -1.8125000000000000e+00  -1.7656250000000000e+00  -1.7187500000000000e+00  -1.6718750000000000e+00  -1.6250000000000000e+00  -1.5781250000000000e+00  -1.5312500000000000e+00  -1.4843750000000000e+00  -1.4375000000000000e+00  -1.3906250000000000e+00  -1.3437500000000000e+00  -1.2968750000000000e+00  -1.2500000000000000e+00  -1.2031250000000000e+00  -1.1562500000000000e+00  -1.1093750000000000e+00  -1.0625000000000000e+00  -1.0156250000000000e+00  -9.6875000000000000e-01  -9.2187500000000000e-01  -8.7500000000000000e-01  -8.2812500000000000e-01  -7.8125000000000000e-01  -7.3437500000000000e-01  -6.8750000000000000e-01  -6.4062500000000000e-01  -5.9375000000000000e-01  -5.4687500000000000e-01  -5.0000000000000000e-01  -4.5312500000000006e-01  -4.0625000000000000e-01  -3.5937500000000000e-01  -3.1250000000000000e-01  -2.6562500000000000e-01  -2.1875000000000003e-01  -1.7187500000000000e-01  -1.2500000000000000e-01  -7.8125000000000000e-02  -3.1250000000000000e-02  1.5625000000000000e-02  6.2500000000000000e-02  1.0937500000000000e-01  1.5625000000000000e-01  2.0312500000000000e-01  2.5000000000000000e-01  2.9687500000000000e-01  3.4375000000000000e-01  3.9062500000000000e-01  4.3750000000000000e-01  4.8437500000000000e-01  5.3125000000000000e-01  5.7812500000000000e-01  6.2500000000000000e-01  6.7187500000000000e-01  7.1875000000000000e-01  7.6562500000000000e-01  8.1250000000000000e-01  8.5937500000000000e-01  9.0625000000000000e-01  9.5312500000000000e-01  1.0000000000000000e+00  -2.0000000000000000e+00  -1.9132717168405746e+00  -1.8332348936105045e+00  -1.7584627105531732e+00  -1.6880331266610216e+00  -1.6212763005005744e+00  -1.5576726309018489e+00  -1.4968034286231646e+00  -1.4383232129982964e+00  -1.3819423031386275e+00  -1.3274149571552478e+00  -1.2745308148154304e+00  -1.2231084667839982e+00  -1.1729904777332258e+00  -1.1240394501570445e+00  -1.0761348596764873e+00  -1.0291704777839989e+00  -9.8305225128637308e-01  -9.3769654281244608e-01  -8.9302866100457634e-01  -8.4898162664214394e-01  -8.0549513457072419e-01  -7.6251468270097245e-01  -7.1999084984133810e-01  -6.7787871503875408e-01  -6.3613742427561804e-01  -5.9472992910234124e-01  -5.5362295096538872e-01  -5.1278726651239537e-01  -4.7219844294659913e-01  -4.3183808886279706e-01  -3.9169529161308214e-01  -3.5176684912153278e-01  -3.1205361534036535e-01  -2.7255354711974661e-01  -2.3327070220435103e-01  -1.9426691428249174e-01  -1.5564959883467505e-01  -1.1735348604998136e-01  -7.9135976468161368e-02  -4.4581056341508940e-02  -1.1929436523849321e-02  2.1762041110248133e-02  5.7385032140322083e-02  9.6133357043681325e-02  1.3800959531675036e-01  1.8130769902245197e-01  2.2537321015926451e-01  2.6991170335433939e-01  3.1477041588495425e-01  3.5986039255848895e-01  4.0512503842132341e-01  4.5052583913214073e-01  4.9603518117864515e-01  5.4163242293514657e-01  5.8730159104682700e-01  6.3302995141447393e-01  6.7880708015481450e-01  7.2462423487066341e-01  7.7047391368885354e-01  8.1634953549311340e-01  8.6224520024028539e-01  9.0815550292189284e-01  9.5407538344843290e-01  1.0000000000000000e+00  -2.0000000000000000e+00  -1.8765486978586150e+00  -1.7679241767873632e+00  -1.6707165251388472e+00  -1.5825758335220896e+00  -1.5018036641123893e+00  -1.4271252057282433e+00  -1.3575556066161207e+00  -1.2923168779449528e+00  -1.2307834874978953e+00  -1.1724451789875583e+00  -1.1168806692975861e+00  -1.0637385140599354e+00  -1.0127228666279697e+00  -9.6358267638677286e-01  -9.1610336395208658e-01  -8.7010031719385239e-01  -8.2541374969373815e-01  -7.8190459473808493e-01  -7.3945119793547931e-01  -6.9794663496756326e-01  -6.5729652727923094e-01  -6.1741726394619212e-01  -5.7823456687147001e-01  -5.3968236215022070e-01  -5.0170194621606334e-01  -4.6424146671151384e-01  -4.2725578601540992e-01  -3.9070687838205592e-01  -3.5456504252388621e-01  -3.1881133843129067e-01  -2.8344148490741938e-01  -2.4846999430259026e-01  -2.1392839321002244e-01  -1.7984517417860740e-01  -1.4623202168538882e-01  -1.1324381956899464e-01  -8.1393987449081509e-02  -5.0934172677168897e-02  -2.3026728586983597e-02  3.0222139698333969e-03  2.9784001906811502e-02  5.8753677912264934e-02  9.0820017275568501e-02  1.2663880071765282e-01  1.6522232520086813e-01  2.0559799061379314e-01  2.4714843826026664e-01  2.8950318737313890e-01  3.3243456762698881e-01  3.7579611592767803e-01  4.1948892199466398e-01  4.6344313692859423e-01  5.0760746264729395e-01  5.5194291951511443e-01  5.9641898983768749e-01  6.4101113445625468e-01  6.8569913433412044e-01  7.3046594563898581e-01  7.7529688439163724e-01  8.2017902804331466e-01  8.6510076254613577e-01  9.1005142799885230e-01  9.5502103087183943e-01  1.0000000000000000e+00  -2.0000000000000000e+00  -1.8423639813204071e+00  -1.7089827459016775e+00  -1.5935588474375506e+00  -1.4918764071961983e+00  -1.4009908154217479e+00  -1.3187708283271431e+00  -1.2436277424287829e+00  -1.1743480107813549e+00  -1.1099855616540495e+00  -1.0497900360406283e+00  -9.9315747628060835e-01  -9.3959553499112258e-01  -8.8869836194292506e-01  -8.4012811414670097e-01  -7.9360110529052119e-01  -7.4887727257493619e-01  -7.0575205988220258e-01  -6.6405009086912925e-01  -6.2362018923047424e-01  -5.8433142929324255e-01  -5.4606998898679571e-01  -5.0873664248254791e-01  -4.7224478033502137e-01  -4.3651888673134503e-01  -4.0149344053623109e-01  -3.6711224400322146e-01  -3.3332823339485573e-01  -3.0010392600308305e-01  -2.6741288709375399e-01  -2.3524308283816042e-01  -2.0360382401142621e-01  -1.7253872852291610e-01  -1.4214232492009060e-01  -1.1253599481582902e-01  -8.3718013885595730e-02  -5.5709906467145374e-02  -3.0676129199824997e-02  -7.7939609417354483e-03  1.4423652997380753e-02  3.6867695255762431e-02  6.1499583727986952e-02  8.9508531607489422e-02  1.2050255833203415e-01  1.5437950335049333e-01  1.9064291415527634e-01  2.2871349997158580e-01  2.6811936489487015e-01  3.0851804025096075e-01  3.4966855132218377e-01  3.9140058153057045e-01  4.3359139670106023e-01  4.7615032394027851e-01  5.1900861296682210e-01  5.6211280264032937e-01  6.0542031433255394e-01  6.4889646223873665e-01  6.9251237708642721e-01  7.3624352895952172e-01  7.8006865019539517e-01  8.2396892974237279e-01  8.6792739390209062e-01  9.1192841565554184e-01  9.5595731204007184e-01  1.0000000000000000e+00  -2.0000000000000000e+00  -1.8104073764327746e+00  -1.6554679215775783e+00  -1.5251171788102378e+00  -1.4129386089782430e+00  -1.3146275622884092e+00  -1.2271750391511635e+00  -1.1484056594233802e+00  -1.0767021367799867e+00  -1.0108335726097588e+00  -9.4984433786308697e-01  -8.9297978753867824e-01  -8.3963517909990981e-01  -7.8931967382256352e-01  -7.4163041707831667e-01  -6.9623352117936943e-01  -6.5284988059214522e-01  -6.1124443830646980e-01  -5.7121796262232516e-01  -5.3260068217893575e-01  -4.9524732075151034e-01  -4.5903320702878769e-01  -4.2385123042816153e-01  -3.8960948670231532e-01  -3.5622951626245442e-01  -3.2364508865264180e-01  -2.9180152888492622e-01  -2.6065561863042741e-01  -2.3017617059165754e-01  -2.0034558500337774e-01  -1.7116333932244146e-01  -1.4265416939391029e-01  -1.1488922764601971e-01  -8.8052912314283749e-02  -6.2570837883369923e-02  -3.8549261163231589e-02  -1.6775020186839944e-02  3.0976790486564407e-03  2.2723767071242351e-02  4.3104292099800587e-02  6.5127797581294222e-02  8.9838106141884533e-02  1.1727830645767164e-01  1.4730218109458537e-01  1.7973374019701008e-01  2.1425632809815812e-01  2.5049373022240329e-01  2.8809748109666711e-01  3.2678105741365032e-01  3.6632101588021510e-01  4.0654626217135975e-01  4.4732575933872809e-01  4.8855814916463719e-01  5.3016386263938664e-01  5.7207936374682633e-01  6.1425300261346205e-01  6.5664202307971065e-01  6.9921038281332992e-01  7.4192714291727901e-01  7.8476525768804895e-01  8.2770064682869060e-01  8.7071146766431196e-01  9.1377752868115225e-01  9.5687980163290620e-01  1.0000000000000000e+00  -2.0000000000000000e+00  -1.7804817046729779e+00  -1.6066749698706657e+00  -1.4639895405428840e+00  -1.3435822710907799e+00  -1.2397484755061803e+00  -1.1486247556924534e+00  -1.0674907212037434e+00  -9.9436875136280811e-01  -9.2778255687953726e-01  -8.6660520105345829e-01  -8.0995992174273945e-01  -7.5715337863111465e-01  -7.0762950745346742e-01  -6.6093686884355762e-01  -6.1670507155618626e-01  -5.7462744408525801e-01  -5.3444810235142293e-01  -4.9595217249748313e-01  -4.5895832166494427e-01  -4.2331300972604768e-01  -3.8888605154615408e-01  -3.5556720406894227e-01  -3.2326358681969508e-01  -2.9189782386883889e-01  -2.6140686918139500e-01  -2.3174154301795005e-01  -2.0286684742744185e-01  -1.7476314305625976e-01  -1.4742836906552120e-01  -1.2088197625923537e-01  -9.5172526956034481e-02  -7.0395052163737676e-02  -4.6678817435139096e-02  -2.5717756225674158e-02  -6.8031270101621358e-03  1.1133711364302253e-02  2.8773632054547280e-02  4.7485516613696571e-02  6.8146164931276648e-02  9.0701096827729338e-02  1.1544673680058527e-01  1.4246440698672724e-01  1.7169411939162565e-01  2.0299694824480347e-01  2.3615492781794273e-01  2.7090761172320210e-01  3.0699577185574495e-01  3.4418769242675840e-01  3.8228819261366631e-01  4.2113769193592548e-01  4.6060722931785514e-01  5.0059265074015546e-01  5.4100932467926122e-01  5.8178778709412693e-01  6.2287030929475651e-01  6.6420824465331363e-01  7.0575998816990304e-01  7.4748940220821514e-01  7.8936459081083121e-01  8.3135693222002838e-01  8.7344030124531447e-01  9.1559042977184923e-01  9.5778436581040061e-01  1.0000000000000000e+00  -2.0000000000000000e+00  -1.7524421313181295e+00  -1.5620515734078364e+00  -1.4090965022723445e+00  -1.2821760926135994e+00  -1.1741959336613386e+00  -1.0804850857396964e+00  -9.9782866690768224e-01  -9.2393333285919654e-01  -8.5711425446809064e-01  -7.9610286106066352e-01  -7.3992396358343626e-01  -6.8781452586197667e-01  -6.3916839181573160e-01  -5.9349772288882841e-01  -5.5040550464640292e-01  -5.0956557464031549e-01  -4.7070788017773008e-01  -4.3360745171734189e-01  -3.9807607148315538e-01  -3.6395593903369727e-01  -3.3111485160493365e-01  -2.9944256787164197e-01  -2.6884813801401897e-01  -2.3925808565016471e-01  -2.1061544252295461e-01  -1.8287977662396004e-01  -1.5602848906322594e-01  -1.3005973555726930e-01  -1.0499755851427764e-01  -8.0901274658811292e-02  -5.7886259090988018e-02  -3.6175800167946796e-02  -1.6888151862122548e-02  2.2968811389901286e-04  1.6715893950812296e-02  3.3445640683873679e-02  5.1043376977897112e-02  7.0298502397720022e-02  9.1293754183880138e-02  1.1408368799776113e-01  1.3878333724600009e-01  1.6543846529702647e-01  1.9401294124038665e-01  2.2440500557263554e-01  2.5645882320560748e-01  2.8998601699671755e-01  3.2479030217635180e-01  3.6068574782397222e-01  3.9750637021176616e-01  4.3510908364082096e-01  4.7337281525661112e-01  5.1219589979886859e-01  5.5149299824337616e-01  5.9119215065566311e-01  6.3123220281812387e-01  6.7156065806888454e-01  7.1213192300475403e-01  7.5290588693484684e-01  7.9384677112703239e-01  8.3492218999527690e-01  8.7610237532506841e-01  9.1735952335052973e-01  9.5866723183684688e-01  1.0000000000000000e+00  -2.0000000000000000e+00  -1.7261714279644274e+00  -1.5211496127249911e+00  -1.3595869577620276e+00  -1.2274696957450006e+00  -1.1163565852625998e+00  -1.0208269905035718e+00  -9.3722316500782332e-01  -8.6297758029310501e-01  -7.9622914671661205e-01  -7.3559248658670107e-01  -6.8001308384716919e-01  -6.2867297690229007e-01  -5.8092742752282844e-01  -5.3626124661512642e-01  -4.9425797931498761e-01  -4.5457773325638651e-01  -4.1694096090880839e-01  -3.8111643942707851e-01  -3.4691227788666590e-01  -3.1416916106794446e-01  -2.8275529151868073e-01  -2.5256266629938212e-01  -2.2350445605049835e-01  -1.9551337827263582e-01  -1.6854113119694564e-01  -1.4255925918003914e-01  -1.1756228525641391e-01  -9.3574469248044301e-02  -7.0662741574518642e-02  -4.8962297709329423e-02  -2.8784665792510135e-02  -1.0826167614120698e-02  5.2428391318885487e-03  2.0512811032378012e-02  3.6308548690843122e-02  5.3379915818856920e-02  7.1655732775447484e-02  9.1371361815406241e-02  1.1264666140876256e-01  1.3555656373343494e-01  1.6016445888862751e-01  1.8649317571499185e-01  2.1451417470025896e-01  2.4415130959974457e-01  2.7528934243513420e-01  3.0778733088170895e-01  3.4149367202897279e-01  3.7625862648101249e-01  4.1194245676860547e-01  4.4841945715898124e-01  4.8557904826889958e-01  5.2332513495533151e-01  5.6157461783971208e-01  6.0025561446702569e-01  6.3930569325319220e-01  6.7867026179934653e-01  7.1830115884538204e-01  7.5815545139938600e-01  7.9819441676717451e-01  8.3838268130897819e-01  8.7868748670915231e-01  9.1907805646835428e-01  9.5952503818645762e-01  1.0000000000000000e+00  -2.0000000000000000e+00  -1.7015687700547009e+00  -1.4835964310321677e+00  -1.3147764874996604e+00  -1.1784846881732589e+00  -1.0649957229634883e+00  -9.6820080391405205e-01  -8.8404840784857530e-01  -8.0973382302069163e-01  -7.4324716899483223e-01  -6.8310665796025150e-01  -6.2819369250530410e-01  -5.7764688921214014e-01  -5.3079170124512631e-01  -4.8709235657522559e-01  -4.4611824225538316e-01  -4.0751991135905180e-01  -3.7101166896661159e-01  -3.3635876926563918e-01  -3.0336792703157345e-01  -2.7188027928491815e-01  -2.4176622158119876e-01  -2.1292174389403309e-01  -1.8526603945915951e-01  -1.5874029736616510e-01  -1.3330782068809349e-01  -1.0895621095763686e-01  -8.5703763888385215e-02  -6.3614814944657441e-02  -4.2831314484462549e-02  -2.3739708042547100e-02  -6.7591561244921524e-03  8.5810001508501484e-03  2.3257816858013165e-02  3.8349605977219280e-02  5.4625573961325238e-02  7.2109741125263416e-02  9.0828276489629739e-02  1.1088455067969491e-01  1.3236496590232916e-01  1.5533144663858867e-01  1.7982475886008314e-01  2.0585560397405445e-01  2.3339927224591298e-01  2.6239671569094952e-01  2.9275990605347596e-01  3.2438029206601132e-01  3.5713842857681766e-01  3.9091262930249981e-01  4.2558537322266199e-01  4.6104723995759889e-01  4.9719878570467479e-01  5.3395097391384594e-01  5.7122472369311506e-01  6.0894999611953549e-01  6.4706469392827315e-01  6.8551353702992723e-01  7.2424699917804203e-01  7.6322034305014075e-01  8.0239276323330133e-01  8.4172663176430906e-01  8.8118683373420814e-01  9.2074017762727745e-01  9.6035486444062979e-01  1.0000000000000000e+00  -2.0000000000000000e+00  -1.6785442333799780e+00  -1.4490766018298515e+00  -1.2741057244005474e+00  -1.1344418591972185e+00  -1.0191494636819485e+00  -9.2149269479624529e-01  -8.3707125973212515e-01  -7.6287551143810184e-01  -6.9676985268753378e-01  -6.3719272959929674e-01  -5.8297361015603533e-01  -5.3321666898736719e-01  -4.8722427805334223e-01  -4.4444519059377074e-01  -4.0443856864594485e-01  -3.6684848519441399e-01  -3.3138554446551571e-01  -2.9781346993373931e-01  -2.6593925825557591e-01  -2.3560598085671880e-01  -2.0668764395495884e-01  -1.7908575780910255e-01  -1.5272745336659516e-01  -1.2756514437507324e-01  -1.0357798251941444e-01  -8.0776356683847667e-02  -5.9214809091710702e-02  -3.9026302394649659e-02  -2.0635915223847938e-02  -4.3369719757465168e-03  1.0457288713728627e-02  2.4712615407569093e-02  3.9356003832785612e-02  5.5002222057160703e-02  7.1734400051975108e-02  8.9605198231241787e-02  1.0866308137811313e-01  1.2897359851141449e-01  1.5059720488227066e-01  1.7357949805850739e-01  1.9794752593906198e-01  2.2370520907522978e-01  2.5083059461838908e-01  2.7927637486466456e-01  3.0897327402180880e-01  3.3983550275204272e-01  3.7176712090978659e-01  4.0466808892950717e-01  4.3843916686194395e-01  4.7298534374407747e-01  5.0821788067835483e-01  5.4405525130226229e-01  5.8042330689936705e-01  6.1725495238972783e-01  6.5448954931043901e-01  6.9207219321404745e-01  7.2995295778671809e-01  7.6808615838983385e-01  8.0642966135158101e-01  8.4494424878074870e-01  8.8359303883609386e-01  9.2234095586591724e-01  9.6115424194878396e-01  1.0000000000000000e+00  -2.0000000000000000e+00  -1.6570159144249685e+00  -1.4173196669834476e+00  -1.2371113360175161e+00  -1.0947111635504025e+00  -9.7805237697736225e-01  -8.7983047722313568e-01  -7.9533685823769351e-01  -7.2138474246125972e-01  -6.5573209867253102e-01  -5.9675117404443123e-01  -5.4322920015434772e-01  -4.9424295320665612e-01  -4.4907691975972941e-01  -4.0716827112242859e-01  -3.6806890881699017e-01  -3.3141872569702591e-01  -2.9692645203545148e-01  -2.6435577998220972e-01  -2.3351527905954411e-01  -2.0425114841715794e-01  -1.7644222942632398e-01  -1.4999701414814390e-01  -1.2485269584936648e-01  -1.0097663843749109e-01  -7.8370993649453505e-02  -5.7082643925717762e-02  -3.7229780651802803e-02  -1.9209560398759418e-02  -3.3224605414450292e-03  1.1075737517588747e-02  2.4989754896806039e-02  3.9284024103941079e-02  5.4451361008399576e-02  7.0568878366662785e-02  8.7704605958172699e-02  1.0591357036961541e-01  1.2524525228016664e-01  1.4574955710557919e-01  1.6747075705683162e-01  1.9044181477410821e-01  2.1468063776242774e-01  2.4018711176941371e-01  2.6694152228774914e-01  2.9490491512751055e-01  3.2402131241705234e-01  3.5422132401056383e-01  3.8542646338077891e-01  4.1755343864379890e-01  4.5051786155152951e-01  4.8423708747841188e-01  5.1863214196240459e-01  5.5362884371748156e-01  5.8915830021236326e-01  6.2515695722956877e-01  6.6156635770970806e-01  6.9833272872910546e-01  7.3540648036494904e-01  7.7274167137089544e-01  8.1029547500244048e-01  8.4802766317101053e-01  8.8590011696350091e-01  9.2387636505151405e-01  9.6192114748858915e-01  1.0000000000000000e+00  -2.0000000000000000e+00  -1.6369083410196850e+00  -1.3880914699650606e+00  -1.2034052204844434e+00  -1.0587764909383095e+00  -9.4108758304074347e-01  -8.4251992770744144e-01  -7.5809257285607812e-01  -6.8446546854670520e-01  -6.1930624972810921e-01  -5.6093204466313029e-01  -5.0809562312242029e-01  -4.5985191994982255e-01  -4.1547157946228502e-01  -3.7438318551786931e-01  -3.3613364032781384e-01  -3.0036040524772795e-01  -2.6677173434468687e-01  -2.3513246250221162e-01  -2.0525379357555873e-01  -1.7698611436276729e-01  -1.5021429242266934e-01  -1.2485533946940422e-01  -1.0085893337137841e-01  -7.8212393892826346e-02  -5.6953527513741393e-02  -3.7197088009359509e-02  -1.9270368388317215e-02  -3.5510643285741727e-03  1.0598956004337599e-02  2.4228544559023943e-02  3.8213353639729802e-02  5.2982365102989586e-02  6.8596537730208851e-02  8.5117324442918155e-02  1.0260157504443747e-01  1.2109922500888051e-01  1.4065480026735888e-01  1.6130862057390399e-01  1.8309445146536849e-01  2.0603636621866600e-01  2.3014609856712712e-01  2.5542107795224811e-01  2.8184346763568302e-01  3.0938045094057631e-01  3.3798573650832636e-01  3.6760201749238114e-01  3.9816396995896608e-01  4.2960134071337991e-01  4.6184175322196336e-01  4.9481300265563594e-01  5.2844475597537011e-01  5.6266968139289630e-01  5.9742409300303578e-01  6.3264821860647580e-01  6.6828619556971836e-01  7.0428588362771738e-01  7.4059856357307685e-01  7.7717857172635862e-01  8.1398290411627461e-01  8.5097081193735202e-01  8.8810340079538530e-01  9.2534323988804923e-01  9.6265398295405791e-01  1.0000000000000000e+00  -2.0000000000000000e+00  -1.6181515471391339e+00  -1.3611877762472520e+00  -1.1726592199341439e+00  -1.0262102894753318e+00  -9.0775151702118895e-01  -8.0900059430549609e-01  -7.2473601051841552e-01  -6.5148488531041193e-01  -5.8683798204671322e-01  -5.2906639016961388e-01  -4.7689468091202425e-01  -4.2936035900358110e-01  -3.8572339585627946e-01  -3.4540611186791936e-01  -3.0795215462716380e-01  -2.7299790576049948e-01  -2.4025224212577870e-01  -2.0948210633443334e-01  -1.8050228682935454e-01  -1.5316843482083897e-01  -1.2737282991775753e-01  -1.0304294366312042e-01  -8.0143905243282951e-02  -5.8689083580608682e-02  -3.8773314159053461e-02  -2.0686934719180435e-02  -4.9205507781574613e-03  9.1275633551516060e-03  2.2538088596347733e-02  3.6235938980250272e-02 