<?xml version="1.0"?>
<VTKFile type="UnstructuredGrid"  version="0.1"  >
<UnstructuredGrid>
<Piece  NumberOfPoints="4225" NumberOfCells="8192">
<Points>
<DataArray  type="Float64"  NumberOfComponents="3"  format="ascii">0 0 0  0.015625 0 0  0.03125 0 0  0.046875 0 0  0.0625 0 0  0.078125 0 0  0.09375 0 0  0.109375 0 0  0.125 0 0  0.140625 0 0  0.15625 0 0  0.171875 0 0  0.1875 0 0  0.203125 0 0  0.21875 0 0  0.234375 0 0  0.25 0 0  0.265625 0 0  0.28125 0 0  0.296875 0 0  0.3125 0 0  0.328125 0 0  0.34375 0 0  0.359375 0 0  0.375 0 0  0.390625 0 0  0.40625 0 0  0.421875 0 0  0.4375 0 0  0.453125 0 0  0.46875 0 0  0.484375 0 0  0.5 0 0  0.515625 0 0  0.53125 0 0  0.546875 0 0  0.5625 0 0  0.578125 0 0  0.59375 0 0  0.609375 0 0  0.625 0 0  0.640625 0 0  0.65625 0 0  0.671875 0 0  0.6875 0 0  0.703125 0 0  0.71875 0 0  0.734375 0 0  0.75 0 0  0.765625 0 0  0.78125 0 0  0.796875 0 0  0.8125 0 0  0.828125 0 0  0.84375 0 0  0.859375 0 0  0.875 0 0  0.890625 0 0  0.90625 0 0  0.921875 0 0  0.9375 0 0  0.953125 0 0  0.96875 0 0  0.984375 0 0  1 0 0  0 0.015625 0  0.015625 0.015625 0  0.03125 0.015625 0  0.046875 0.015625 0  0.0625 0.015625 0  0.078125 0.015625 0  0.09375 0.015625 0  0.109375 0.015625 0  0.125 0.015625 0  0.140625 0.015625 0  0.15625 0.015625 0  0.171875 0.015625 0  0.1875 0.015625 0  0.203125 0.015625 0  0.21875 0.015625 0  0.234375 0.015625 0  0.25 0.015625 0  0.265625 0.015625 0  0.28125 0.015625 0  0.296875 0.015625 0  0.3125 0.015625 0  0.328125 0.015625 0  0.34375 0.015625 0  0.359375 0.015625 0  0.375 0.015625 0  0.390625 0.015625 0  0.40625 0.015625 0  0.421875 0.015625 0  0.4375 0.015625 0  0.453125 0.015625 0  0.46875 0.015625 0  0.484375 0.015625 0  0.5 0.015625 0  0.515625 0.015625 0  0.53125 0.015625 0  0.546875 0.015625 0  0.5625 0.015625 0  0.578125 0.015625 0  0.59375 0.015625 0  0.609375 0.015625 0  0.625 0.015625 0  0.640625 0.015625 0  0.65625 0.015625 0  0.671875 0.015625 0  0.6875 0.015625 0  0.703125 0.015625 0  0.71875 0.015625 0  0.734375 0.015625 0  0.75 0.015625 0  0.765625 0.015625 0  0.78125 0.015625 0  0.796875 0.015625 0  0.8125 0.015625 0  0.828125 0.015625 0  0.84375 0.015625 0  0.859375 0.015625 0  0.875 0.015625 0  0.890625 0.015625 0  0.90625 0.015625 0  0.921875 0.015625 0  0.9375 0.015625 0  0.953125 0.015625 0  0.96875 0.015625 0  0.984375 0.015625 0  1 0.015625 0  0 0.03125 0  0.015625 0.03125 0  0.03125 0.03125 0  0.046875 0.03125 0  0.0625 0.03125 0  0.078125 0.03125 0  0.09375 0.03125 0  0.109375 0.03125 0  0.125 0.03125 0  0.140625 0.03125 0  0.15625 0.03125 0  0.171875 0.03125 0  0.1875 0.03125 0  0.203125 0.03125 0  0.21875 0.03125 0  0.234375 0.03125 0  0.25 0.03125 0  0.265625 0.03125 0  0.28125 0.03125 0  0.296875 0.03125 0  0.3125 0.03125 0  0.328125 0.03125 0  0.34375 0.03125 0  0.359375 0.03125 0  0.375 0.03125 0  0.390625 0.03125 0  0.40625 0.03125 0  0.421875 0.03125 0  0.4375 0.03125 0  0.453125 0.03125 0  0.46875 0.03125 0  0.484375 0.03125 0  0.5 0.03125 0  0.515625 0.03125 0  0.53125 0.03125 0  0.546875 0.03125 0  0.5625 0.03125 0  0.578125 0.03125 0  0.59375 0.03125 0  0.609375 0.03125 0  0.625 0.03125 0  0.640625 0.03125 0  0.65625 0.03125 0  0.671875 0.03125 0  0.6875 0.03125 0  0.703125 0.03125 0  0.71875 0.03125 0  0.734375 0.03125 0  0.75 0.03125 0  0.765625 0.03125 0  0.78125 0.03125 0  0.796875 0.03125 0  0.8125 0.03125 0  0.828125 0.03125 0  0.84375 0.03125 0  0.859375 0.03125 0  0.875 0.03125 0  0.890625 0.03125 0  0.90625 0.03125 0  0.921875 0.03125 0  0.9375 0.03125 0  0.953125 0.03125 0  0.96875 0.03125 0  0.984375 0.03125 0  1 0.03125 0  0 0.046875 0  0.015625 0.046875 0  0.03125 0.046875 0  0.046875 0.046875 0  0.0625 0.046875 0  0.078125 0.046875 0  0.09375 0.046875 0  0.109375 0.046875 0  0.125 0.046875 0  0.140625 0.046875 0  0.15625 0.046875 0  0.171875 0.046875 0  0.1875 0.046875 0  0.203125 0.046875 0  0.21875 0.046875 0  0.234375 0.046875 0  0.25 0.046875 0  0.265625 0.046875 0  0.28125 0.046875 0  0.296875 0.046875 0  0.3125 0.046875 0  0.328125 0.046875 0  0.34375 0.046875 0  0.359375 0.046875 0  0.375 0.046875 0  0.390625 0.046875 0  0.40625 0.046875 0  0.421875 0.046875 0  0.4375 0.046875 0  0.453125 0.046875 0  0.46875 0.046875 0  0.484375 0.046875 0  0.5 0.046875 0  0.515625 0.046875 0  0.53125 0.046875 0  0.546875 0.046875 0  0.5625 0.046875 0  0.578125 0.046875 0  0.59375 0.046875 0  0.609375 0.046875 0  0.625 0.046875 0  0.640625 0.046875 0  0.65625 0.046875 0  0.671875 0.046875 0  0.6875 0.046875 0  0.703125 0.046875 0  0.71875 0.046875 0  0.734375 0.046875 0  0.75 0.046875 0  0.765625 0.046875 0  0.78125 0.046875 0  0.796875 0.046875 0  0.8125 0.046875 0  0.828125 0.046875 0  0.84375 0.046875 0  0.859375 0.046875 0  0.875 0.046875 0  0.890625 0.046875 0  0.90625 0.046875 0  0.921875 0.046875 0  0.9375 0.046875 0  0.953125 0.046875 0  0.96875 0.046875 0  0.984375 0.046875 0  1 0.046875 0  0 0.0625 0  0.015625 0.0625 0  0.03125 0.0625 0  0.046875 0.0625 0  0.0625 0.0625 0  0.078125 0.0625 0  0.09375 0.0625 0  0.109375 0.0625 0  0.125 0.0625 0  0.140625 0.0625 0  0.15625 0.0625 0  0.171875 0.0625 0  0.1875 0.0625 0  0.203125 0.0625 0  0.21875 0.0625 0  0.234375 0.0625 0  0.25 0.0625 0  0.265625 0.0625 0  0.28125 0.0625 0  0.296875 0.0625 0  0.3125 0.0625 0  0.328125 0.0625 0  0.34375 0.0625 0  0.359375 0.0625 0  0.375 0.0625 0  0.390625 0.0625 0  0.40625 0.0625 0  0.421875 0.0625 0  0.4375 0.0625 0  0.453125 0.0625 0  0.46875 0.0625 0  0.484375 0.0625 0  0.5 0.0625 0  0.515625 0.0625 0  0.53125 0.0625 0  0.546875 0.0625 0  0.5625 0.0625 0  0.578125 0.0625 0  0.59375 0.0625 0  0.609375 0.0625 0  0.625 0.0625 0  0.640625 0.0625 0  0.65625 0.0625 0  0.671875 0.0625 0  0.6875 0.0625 0  0.703125 0.0625 0  0.71875 0.0625 0  0.734375 0.0625 0  0.75 0.0625 0  0.765625 0.0625 0  0.78125 0.0625 0  0.796875 0.0625 0  0.8125 0.0625 0  0.828125 0.0625 0  0.84375 0.0625 0  0.859375 0.0625 0  0.875 0.0625 0  0.890625 0.0625 0  0.90625 0.0625 0  0.921875 0.0625 0  0.9375 0.0625 0  0.953125 0.0625 0  0.96875 0.0625 0  0.984375 0.0625 0  1 0.0625 0  0 0.078125 0  0.015625 0.078125 0  0.03125 0.078125 0  0.046875 0.078125 0  0.0625 0.078125 0  0.078125 0.078125 0  0.09375 0.078125 0  0.109375 0.078125 0  0.125 0.078125 0  0.140625 0.078125 0  0.15625 0.078125 0  0.171875 0.078125 0  0.1875 0.078125 0  0.203125 0.078125 0  0.21875 0.078125 0  0.234375 0.078125 0  0.25 0.078125 0  0.265625 0.078125 0  0.28125 0.078125 0  0.296875 0.078125 0  0.3125 0.078125 0  0.328125 0.078125 0  0.34375 0.078125 0  0.359375 0.078125 0  0.375 0.078125 0  0.390625 0.078125 0  0.40625 0.078125 0  0.421875 0.078125 0  0.4375 0.078125 0  0.453125 0.078125 0  0.46875 0.078125 0  0.484375 0.078125 0  0.5 0.078125 0  0.515625 0.078125 0  0.53125 0.078125 0  0.546875 0.078125 0  0.5625 0.078125 0  0.578125 0.078125 0  0.59375 0.078125 0  0.609375 0.078125 0  0.625 0.078125 0  0.640625 0.078125 0  0.65625 0.078125 0  0.671875 0.078125 0  0.6875 0.078125 0  0.703125 0.078125 0  0.71875 0.078125 0  0.734375 0.078125 0  0.75 0.078125 0  0.765625 0.078125 0  0.78125 0.078125 0  0.796875 0.078125 0  0.8125 0.078125 0  0.828125 0.078125 0  0.84375 0.078125 0  0.859375 0.078125 0  0.875 0.078125 0  0.890625 0.078125 0  0.90625 0.078125 0  0.921875 0.078125 0  0.9375 0.078125 0  0.953125 0.078125 0  0.96875 0.078125 0  0.984375 0.078125 0  1 0.078125 0  0 0.09375 0  0.015625 0.09375 0  0.03125 0.09375 0  0.046875 0.09375 0  0.0625 0.09375 0  0.078125 0.09375 0  0.09375 0.09375 0  0.109375 0.09375 0  0.125 0.09375 0  0.140625 0.09375 0  0.15625 0.09375 0  0.171875 0.09375 0  0.1875 0.09375 0  0.203125 0.09375 0  0.21875 0.09375 0  0.234375 0.09375 0  0.25 0.09375 0  0.265625 0.09375 0  0.28125 0.09375 0  0.296875 0.09375 0  0.3125 0.09375 0  0.328125 0.09375 0  0.34375 0.09375 0  0.359375 0.09375 0  0.375 0.09375 0  0.390625 0.09375 0  0.40625 0.09375 0  0.421875 0.09375 0  0.4375 0.09375 0  0.453125 0.09375 0  0.46875 0.09375 0  0.484375 0.09375 0  0.5 0.09375 0  0.515625 0.09375 0  0.53125 0.09375 0  0.546875 0.09375 0  0.5625 0.09375 0  0.578125 0.09375 0  0.59375 0.09375 0  0.609375 0.09375 0  0.625 0.09375 0  0.640625 0.09375 0  0.65625 0.09375 0  0.671875 0.09375 0  0.6875 0.09375 0  0.703125 0.09375 0  0.71875 0.09375 0  0.734375 0.09375 0  0.75 0.09375 0  0.765625 0.09375 0  0.78125 0.09375 0  0.796875 0.09375 0  0.8125 0.09375 0  0.828125 0.09375 0  0.84375 0.09375 0  0.859375 0.09375 0  0.875 0.09375 0  0.890625 0.09375 0  0.90625 0.09375 0  0.921875 0.09375 0  0.9375 0.09375 0  0.953125 0.09375 0  0.96875 0.09375 0  0.984375 0.09375 0  1 0.09375 0  0 0.109375 0  0.015625 0.109375 0  0.03125 0.109375 0  0.046875 0.109375 0  0.0625 0.109375 0  0.078125 0.109375 0  0.09375 0.109375 0  0.109375 0.109375 0  0.125 0.109375 0  0.140625 0.109375 0  0.15625 0.109375 0  0.171875 0.109375 0  0.1875 0.109375 0  0.203125 0.109375 0  0.21875 0.109375 0  0.234375 0.109375 0  0.25 0.109375 0  0.265625 0.109375 0  0.28125 0.109375 0  0.296875 0.109375 0  0.3125 0.109375 0  0.328125 0.109375 0  0.34375 0.109375 0  0.359375 0.109375 0  0.375 0.109375 0  0.390625 0.109375 0  0.40625 0.109375 0  0.421875 0.109375 0  0.4375 0.109375 0  0.453125 0.109375 0  0.46875 0.109375 0  0.484375 0.109375 0  0.5 0.109375 0  0.515625 0.109375 0  0.53125 0.109375 0  0.546875 0.109375 0  0.5625 0.109375 0  0.578125 0.109375 0  0.59375 0.109375 0  0.609375 0.109375 0  0.625 0.109375 0  0.640625 0.109375 0  0.65625 0.109375 0  0.671875 0.109375 0  0.6875 0.109375 0  0.703125 0.109375 0  0.71875 0.109375 0  0.734375 0.109375 0  0.75 0.109375 0  0.765625 0.109375 0  0.78125 0.109375 0  0.796875 0.109375 0  0.8125 0.109375 0  0.828125 0.109375 0  0.84375 0.109375 0  0.859375 0.109375 0  0.875 0.109375 0  0.890625 0.109375 0  0.90625 0.109375 0  0.921875 0.109375 0  0.9375 0.109375 0  0.953125 0.109375 0  0.96875 0.109375 0  0.984375 0.109375 0  1 0.109375 0  0 0.125 0  0.015625 0.125 0  0.03125 0.125 0  0.046875 0.125 0  0.0625 0.125 0  0.078125 0.125 0  0.09375 0.125 0  0.109375 0.125 0  0.125 0.12
[...]
<PointData  Scalars="f_6"> 
<DataArray  type="Float64"  Name="f_6"  format="ascii">-2.0000000000000000e+00  -1.9531250000000000e+00  -1.9062500000000000e+00  -1.8593750000000000e+00  -1.8125000000000000e+00  -1.7656250000000000e+00  -1.7187500000000000e+00  -1.6718750000000000e+00  -1.6250000000000000e+00  -1.5781250000000000e+00  -1.5312500000000000e+00  -1.4843750000000000e+00  -1.4375000000000000e+00  -1.3906250000000000e+00  -1.3437500000000000e+00  -1.2968750000000000e+00  -1.2500000000000000e+00  -1.2031250000000000e+00  -1.1562500000000000e+00  -1.1093750000000000e+00  -1.0625000000000000e+00  -1.0156250000000000e+00  -9.6875000000000011e-01  -9.2187500000000000e-01  -8.7500000000000000e-01  -8.2812500000000000e-01  -7.8125000000000000e-01  -7.3437500000000000e-01  -6.8750000000000000e-01  -6.4062500000000000e-01  -5.9375000000000000e-01  -5.4687500000000000e-01  -5.0000000000000000e-01  -4.5312499999999994e-01  -4.0625000000000000e-01  -3.5937500000000000e-01  -3.1250000000000000e-01  -2.6562500000000000e-01  -2.1874999999999997e-01  -1.7187500000000000e-01  -1.2499999999999999e-01  -7.8125000000000000e-02  -3.1250000000000000e-02  1.5625000000000000e-02  6.2500000000000000e-02  1.0937500000000000e-01  1.5625000000000000e-01  2.0312500000000000e-01  2.5000000000000000e-01  2.9687500000000000e-01  3.4375000000000000e-01  3.9062500000000000e-01  4.3750000000000000e-01  4.8437500000000000e-01  5.3125000000000000e-01  5.7812500000000000e-01  6.2500000000000000e-01  6.7187500000000000e-01  7.1875000000000000e-01  7.6562500000000000e-01  8.1250000000000000e-01  8.5937500000000000e-01  9.0625000000000000e-01  9.5312500000000000e-01  1.0000000000000000e+00  -2.0000000000000000e+00  -1.9132717425036150e+00  -1.8332349619959505e+00  -1.7584628340413664e+00  -1.6880333137359835e+00  -1.6212765563380400e+00  -1.5576729578530404e+00  -1.4968038266336527e+00  -1.4383236799812471e+00  -1.3819428353121690e+00  -1.3274155493489956e+00  -1.2745314607489469e+00  -1.2231091593189647e+00  -1.1729912091007151e+00  -1.1240402121611344e+00  -1.0761356438754326e+00  -1.0291712756501370e+00  -9.8305305434595658e-01  -9.3769734276656114e-01  -8.9302944983229271e-01  -8.4898239668695707e-01  -8.0549587861122185e-01  -7.6251539400649870e-01  -7.1999152221365137e-01  -6.7787934284216256e-01  -6.3613800246237939e-01  -5.9473045324845297e-01  -5.5362341734311948e-01  -5.1278767223388688e-01  -4.7219878620616440e-01  -4.3183836927071911e-01  -3.9169551053981189e-01  -3.5176700985224019e-01  -3.1205372270134796e-01  -2.7255360636873505e-01  -2.3327071867056820e-01  -1.9426689576167777e-01  -1.5564955435139283e-01  -1.1735341865670335e-01  -7.9135888684817121e-02  -4.4580967644726945e-02  -1.1929361752740500e-02  2.1762100914266256e-02  5.7385078860519675e-02  9.6133395107236994e-02  1.3800962763846503e-01  1.8130772710458937e-01  2.2537323488890249e-01  2.6991172531025909e-01  3.1477043547222777e-01  3.5986041007493053e-01  4.0512505409373373e-01  4.5052585313771559e-01  4.9603519365843768e-01  5.4163243400295569e-01  5.8730160079529692e-01  6.3302995991940536e-01  6.7880708747828467e-01  7.2462424106332268e-01  7.7047391879163285e-01  8.1634953953850198e-01  8.6224520325327803e-01  9.0815550492068331e-01  9.5407538444489670e-01  1.0000000000000000e+00  -2.0000000000000000e+00  -1.8765487574901500e+00  -1.7679243384002128e+00  -1.6707168139456250e+00  -1.5825762625052515e+00  -1.5018042373716869e+00  -1.4271259208585598e+00  -1.3575564564507985e+00  -1.2923178518663507e+00  -1.2307845724424276e+00  -1.1724463602286050e+00  -1.1168819310627047e+00  -1.0637398400216700e+00  -1.0127242402962762e+00  -9.6358408142347385e-01  -9.1610478442248910e-01  -8.7010173776696575e-01  -8.2541515579985236e-01  -7.8190597269059026e-01  -7.3945253502238539e-01  -6.9794791951705204e-01  -6.5729774870249358e-01  -6.1741841275969944e-01  -5.7823563470018757e-01  -5.3968334171466892e-01  -5.0170283131256799e-01  -4.6424225220958965e-01  -4.2725646791801175e-01  -3.9070745401296475e-01  -3.5456551090139515e-01  -3.1881170083645910e-01  -2.8344174554294371e-01  -2.4847016073787578e-01  -2.1392847591444994e-01  -1.7984518380363465e-01  -1.4623196644270783e-01  -1.1324371218398151e-01  -8.1393852687090582e-02  -5.0934010010186694e-02  -2.3026560491354181e-02  3.0223640386543554e-03  2.9784130213017939e-02  5.8753783722484014e-02  9.0820104028605700e-02  1.2663887392996323e-01  1.6522238834203390e-01  2.0559804589098990e-01  2.4714848714076146e-01  2.8950323087990615e-01  3.3243460650372142e-01  3.7579615073376066e-01  4.1948895316228879e-01  4.6344316479869091e-01  5.0760748749307938e-01  5.5194294155808843e-01  5.9641900925882640e-01  6.4101115140404019e-01  6.8569914893041117e-01  7.3046595798337310e-01  7.7529689456470718e-01  8.2017903610909659e-01  8.6510076855392781e-01  9.1005143198455818e-01  9.5502103285890338e-01  1.0000000000000000e+00  -2.0000000000000000e+00  -1.8423640819531923e+00  -1.7089830186709891e+00  -1.5935593268910342e+00  -1.4918771046490549e+00  -1.4009917274007710e+00  -1.3187719419381698e+00  -1.2436290388678961e+00  -1.1743494676883484e+00  -1.1099871547219284e+00  -1.0497917401341363e+00  -9.9315926622291162e-01  -9.3959738612125987e-01  -8.8870025051165891e-01  -8.4013001759621797e-01  -7.9360300244906301e-01  -7.4887914378797582e-01  -7.0575388709549258e-01  -6.6405185767475450e-01  -6.2362188088420001e-01  -5.8433303270938286e-01  -5.4607149271490130e-01  -5.0873803666789585e-01  -4.7224605666226976e-01  -4.3652003834969494e-01  -4.0149446197006239e-01  -3.6711313107178750e-01  -3.3332898320083182e-01  -3.0010453708880347e-01  -2.6741335987344117e-01  -2.3524342036293852e-01  -2.0360403301348418e-01  -1.7253882053983466e-01  -1.4214231685856862e-01  -1.1253590500920652e-01  -8.3717850380836539e-02  -5.5709674459016631e-02  -3.0675871264453175e-02  -7.7937086924603563e-03  1.4423882308909636e-02  3.6867891661016429e-02  6.1499750238166451e-02  8.9508673391521479e-02  1.2050267960145584e-01  1.5437960824197644e-01  1.9064300590871724e-01  2.2871358097657488e-01  2.6811943690324741e-01  3.0851810456488271e-01  3.4966860892899132e-01  3.9140063319410195e-01  4.3359144302297009e-01  4.7615036540168004e-01  5.1900864995710116e-01  5.6211283547749225e-01  6.0542034327788052e-01  6.4889648750751816e-01  6.9251239885594684e-01  7.3624354737505104e-01  7.8006866537472663e-01  8.2396894177924940e-01  8.6792740286877812e-01  9.1192842160471899e-01  9.5595731500615833e-01  1.0000000000000000e+00  -2.0000000000000000e+00  -1.8104075241212283e+00  -1.6554683184137691e+00  -1.5251178633365188e+00  -1.4129395845529718e+00  -1.3146288125566221e+00  -1.2271765369518948e+00  -1.1484073720566035e+00  -1.0767040291856953e+00  -1.0108356093135287e+00  -9.4984648417388995e-01  -8.9298201028335089e-01  -8.3963744706504795e-01  -7.8932195800863858e-01  -7.4163269083150729e-01  -6.9623576024269207e-01  -6.5285206310266120e-01  -6.1124654475613671e-01  -5.7121997579436090e-01  -5.3260258706813657e-01  -4.9524910447480497e-01  -4.5903485873031608e-01  -4.2385274117993732e-01  -3.8961084939587293e-01  -3.5623072547997942e-01  -3.2364614050535928e-01  -2.9180242082779612e-01  -2.6065634931925635e-01  -2.3017673992591714e-01  -2.0034599453739829e-01  -1.7116359316367827e-01  -1.4265427555184662e-01  -1.1488919984095315e-01  -8.8052773185599370e-02  -6.2570624698118638e-02  -3.8548969298033905e-02  -1.6774687920762737e-02  3.0980035249081775e-03  2.2724069538812924e-02  4.3104561209026594e-02  6.5128028240870509e-02  8.9838305687110001e-02  1.1727848000397953e-01  1.4730233274371982e-01  1.7973387352776937e-01  2.1425644607428387e-01  2.5049383520334495e-01  2.8809757493077048e-01  3.2678114154738580e-01  3.6632109145325903e-01  4.0654633009068591e-01  4.4732582033380952e-01  4.8855820382795778e-01  5.3016391145615316e-01  5.7207940711689786e-01  6.1425304086768540e-01  6.5664205649220497e-01  6.9921041161080710e-01  7.4192716728615704e-01  7.8476527777989891e-01  8.2770066276439636e-01  8.7071147953721639e-01  9.1377753655938165e-01  9.5687980556101049e-01  1.0000000000000000e+00  -2.0000000000000000e+00  -1.7804819046313138e+00  -1.6066754998814963e+00  -1.4639904372018533e+00  -1.3435835242708771e+00  -1.2397500521495586e+00  -1.1486266122955868e+00  -1.0674928105122605e+00  -9.9437102599584803e-01  -9.2778497127877269e-01  -8.6660771249779966e-01  -8.0996249083410032e-01  -7.5715596947847041e-01  -7.0763208768499286e-01  -6.6093940952196650e-01  -6.1670754704106423e-01  -5.7462983186796879e-01  -5.3445038287755320e-01  -4.9595432898586744e-01  -4.5896033992936103e-01  -4.2331487800467288e-01  -3.8888776034323957e-01  -3.5556874601040989e-01  -3.2326495651540554e-01  -2.9189901775675753e-01  -2.6140788531057302e-01  -2.3174238073881501e-01  -2.0286750704350690e-01  -1.7476362564343975e-01  -1.4742867677788607e-01  -1.2088211335944325e-01  -9.5172501460479147e-02  -7.0394877567108674e-02  -4.6678507731147977e-02  -2.5717376421772079e-02  -6.8027210301240615e-03  1.1134109323446360e-02  2.8773995703926778e-02  4.7485842838460704e-02  6.8146456375042921e-02  9.0701354406329024e-02  1.1544696426542353e-01  1.4246460819356682e-01  1.7169429784167453e-01  2.0299710705109722e-01  2.3615506965730410e-01  2.7090773883175057e-01  3.0699588606910355e-01  3.4418779524063092e-01  3.8228828524597308e-01  4.2113777538157326e-01  4.6060730439362391e-01  5.0059271812018835e-01  5.4100938492265604e-01  5.8178784066626066e-01  6.2287035658375689e-01  6.6420828598280901e-01  7.0576002380891956e-01  7.4748943237887111e-01  7.8936461569431582e-01  8.3135695196122072e-01  8.7344031595630911e-01  9.1559043953458030e-01  9.5778437067850297e-01  1.0000000000000000e+00  -2.0000000000000000e+00  -1.7524423879862188e+00  -1.5620522427266912e+00  -1.4090976130648361e+00  -1.2821776168073549e+00  -1.1741978190392075e+00  -1.0804872716542389e+00  -9.9783109190334041e-01  -9.2393593831330689e-01  -8.5711698622513699e-01  -7.9610567004269417e-01  -7.3992680587985060e-01  -6.8781736256143156e-01  -6.3917118871879253e-01  -5.9350045017437802e-01  -5.5040813652952392e-01  -5.0956808904017437e-01  -4.7071025840364306e-01  -4.3360967817612783e-01  -3.9807813340934883e-01  -3.6395782624553885e-01  -3.3111655629208553e-01  -2.9944408442175136e-01  -2.6884946287599626e-01  -2.3925921719965074e-01  -2.1061638083823597e-01  -1.8288052304826519e-01  -1.5602904554313002e-01  -1.3006010404538654e-01  -1.0499774101809314e-01  -8.0901274582158067e-02  -5.7886084065791654e-02  -3.6175456093065855e-02  -1.6887712306184303e-02  2.3014928001289614e-04  1.6716350887935858e-02  3.3446070337250527e-02  5.1043762208787286e-02  7.0298849736060223e-02  9.1294067046355426e-02  1.1408396874397901e-01  1.3878358877468822e-01  1.6543869066318992e-01  1.9401314337831416e-01  2.2440518717764124e-01  2.5645898667208439e-01  2.8998616439724972e-01  3.2479043527326229e-01  3.6068586810006148e-01  3.9750647890842949e-01  4.3510918179600977e-01  4.7337290373892460e-01  5.1219597933651551e-01  5.5149306944802212e-01  5.9119221404173161e-01  6.3123225881827316e-01  6.7156070704635507e-01  7.1213196526319134e-01  7.5290592272609214e-01  7.9384680065727298e-01  8.3492221342986128e-01  8.7610239279221902e-01  9.1735953494412803e-01  9.5866723761842043e-01  1.0000000000000000e+00  -2.0000000000000000e+00  -1.7261717450399101e+00  -1.5211504251040624e+00  -1.3595882811782884e+00  -1.2274714808187346e+00  -1.1163587592740711e+00  -1.0208294757394536e+00  -9.3722588674611518e-01  -8.6298047005187239e-01  -7.9623214330499015e-01  -7.3559553614471540e-01  -6.8001613944197503e-01  -6.2867599795488516e-01  -5.8093037919632140e-01  -5.3626409922473184e-01  -4.9426070778442543e-01  -4.5458031662756482e-01  -4.1694338190294772e-01  -3.8111868405177168e-01  -3.4691433508344433e-01  -3.1417102239917888e-01  -2.8275695090192055e-01  -2.5256411980926274e-01  -2.2350570180993237e-01  -1.9551441641241016e-01  -1.6854196373332872e-01  -1.4255988949034737e-01  -1.1756271693014662e-01  -9.3574704662869698e-02  -7.0662781253991114e-02  -4.8962142481454363e-02  -2.8784305941743731e-02  -1.0825682004268611e-02  5.2433559551873588e-03  2.0513310004751855e-02  3.6309017507528296e-02  5.3380352625958472e-02  7.1656133057911645e-02  9.1371726850637450e-02  1.1264699333033945e-01  1.3555686474854337e-01  1.6016473142616047e-01  1.8649342230619040e-01  2.1451439783075088e-01  2.4415151160906914e-01  2.7528952545614271e-01  3.0778749681190165e-01  3.4149382252663463e-01  3.7625876297792304e-01  4.1194258049167398e-01  4.4841956915511150e-01  4.8557914942954938e-01  5.2332522603892706e-01  5.6157469949118521e-01  6.0025568723437062e-01  6.3930575760124964e-01  6.7867031812114653e-01  7.1830120747139892e-01  7.5815549260503312e-01  7.9819445077882256e-01  8.3838270830873241e-01  8.7868750683857733e-01  9.1907806983129214e-01  9.5952504485105150e-01  1.0000000000000000e+00  -2.0000000000000000e+00  -1.7015691505111217e+00  -1.4835973882848721e+00  -1.3147780195823666e+00  -1.1784867220395243e+00  -1.0649981648985354e+00  -9.6820355978440464e-01  -8.8405139089282780e-01  -8.0973695635088050e-01  -7.4325038585618752e-01  -6.8310990108698666e-01  -6.2819691316746662e-01  -5.7765004621520688e-01  -5.3079475999132619e-01  -4.8709528822518006e-01  -4.4612102299652945e-01  -4.0752252177298603e-01  -3.7101409348129383e-01  -3.3636099567602107e-01  -3.0336994607270756e-01  -2.7188208424723226e-01  -2.4176780797378028e-01  -2.1292310919397758e-01  -1.8526718302440803e-01  -1.5874122057457735e-01  -1.3330852713853275e-01  -1.0895670602373568e-01  -8.5704052774848855e-02  -6.3614899621998525e-02  -4.2831192183631128e-02  -2.3739344650411293e-02  -6.7586299096921484e-03  8.5815756954709492e-03  2.3258373831537189e-02  3.8350123622601630e-02  5.4626056511466944e-02  7.2110189601143404e-02  9.0828690546263399e-02  1.1088493127823851e-01  1.3236531467582158e-01  1.5533176549369457e-01  1.7982504987521999e-01  2.0585586930466027e-01  2.3339951402943010e-01  2.6239693597174191e-01  2.9276010673151570e-01  3.2438047486757965e-01  3.5713859504345086e-01  3.9091278079332237e-01  4.2558551092523195e-01  4.6104736490321291e-01  4.9719889878523460e-01  5.3395107589845836e-01  5.7122481524342150e-01  6.0895007780331623e-01  6.4706476623120890e-01  6.8551360036558251e-01  7.2424705389622523e-01  7.6322038944381898e-01  8.0239280154425152e-01  8.4172666218766912e-01  8.8118685642206596e-01  9.2074019269141205e-01  9.6035487195449243e-01  1.0000000000000000e+00  -2.0000000000000000e+00  -1.6785446794811874e+00  -1.4490777041714129e+00  -1.2741074594872330e+00  -1.1344441288166904e+00  -1.0191521532524739e+00  -9.2149569474863124e-01  -8.3707447259939993e-01  -7.6287885332128624e-01  -6.9677325257482903e-01  -6.3719612796925873e-01  -5.8297695745112732e-01  -5.3321992418614872e-01  -4.8722740741627624e-01  -4.4444816659316350e-01  -4.0444136906494393e-01  -3.6685109237092806e-01  -3.3138794465395688e-01  -2.9781565275573674e-01  -2.6594121620886180e-01  -2.3560770885244131e-01  -2.0668913886937454e-01  -1.7908701809026517e-01  -1.5272847885713461e-01  -1.2756593665056262e-01  -1.0357854582113801e-01  -8.0776698039655981e-02  -5.9214934952905439e-02  -3.9026213939656315e-02  -2.0635556121859064e-02  -4.3364117643846277e-03  1.0457922634438883e-02  2.4713234267012395e-02  3.9356576523358201e-02  5.5002754142650503e-02  7.1734895314594482e-02  8.9605658720884787e-02  1.0866350824776005e-01  1.2897399304023166e-01  1.5059756860101361e-01  1.7357983267519334e-01  1.9794783327636467e-01  2.2370549100780068e-01  2.5083085301056723e-01  2.7927661151695266e-01  3.0897349063059842e-01  3.3983570088345033e-01  3.7176730198626629e-01  4.0466825422668373e-01  4.3843931751271858e-01  4.7298548074727370e-01  5.0821800490971758e-01  5.4405536352625006e-01  5.8042340778072654e-01  6.1725504250426366e-01  6.5448962915468756e-01  6.9207226321374937e-01  7.2995301830410053e-01  7.6808620972976605e-01  8.0642970376669532e-01  8.4494428247562647e-01  8.8359306397060533e-01  9.2234097255779746e-01  9.6115425027550638e-01  1.0000000000000000e+00  -2.0000000000000000e+00  -1.6570164277408050e+00  -1.4173209132994073e+00  -1.2371132672655232e+00  -1.0947136555626455e+00  -9.7805529486667053e-01  -8.7983369714642867e-01  -7.9534027334909563e-01  -7.2138826312190740e-01  -6.5573565073135087e-01  -5.9675469665557090e-01  -5.4323264367648116e-01  -4.9424627736146487e-01  -4.4908009208141514e-01  -4.0717126567625062e-01  -3.6807170514850646e-01  -3.3142130797166730e-01  -2.9692880832943452e-01  -2.6435790168454276e-01  -2.3351716033706044e-01  -2.0425278567973840e-01  -1.7644362071975284e-01  -1.4999815844480760e-01  -1.2485359242280493e-01  -1.0097728706354915e-01  -7.8371396877014457e-02  -5.7082809304145714e-02  -3.7229715141104458e-02  -1.9209207741723921e-02  -3.3218776009858778e-03  1.1076421599741648e-02  2.4990433266399114e-02  3.9284651599079450e-02  5.4451943852232676e-02  7.0569421110047714e-02  8.7705111883375667e-02  1.0591404172004118e-01  1.2524569068366040e-01  1.4574996403391435e-01  1.6747113401280800e-01  1.9044216332970043e-01  2.1468095954724478e-01  2.4018740843961051e-01  2.6694179548808566e-01  2.9490516645490311e-01  3.2402154339047523e-01  3.5422153604935697e-01  3.8542665779147989e-01  4.1755361661442769e-01  4.5051802415168563e-01  4.8423723566344529e-01  5.1863227658011135e-01  5.5362896551609786e-01  5.8915840984897117e-01  6.2515705527832399e-01  6.6156644466952863e-01  6.9833280503062700e-01  7.3540654637666181e-01  7.7274172740444913e-01  8.1029552131713767e-01  8.4802769997753535e-01  8.8590014442693121e-01  9.2387638329366595e-01  9.6192115658973598e-01  1.0000000000000000e+00  -2.0000000000000000e+00  -1.6369089224449953e+00  -1.3880928580266756e+00  -1.2034073402450201e+00  -1.0587791920539025e+00  -9.4109071116820431e-01  -8.4252334595905654e-01  -7.5809616626008725e-01  -6.8446914284347093e-01  -6.1930992855720934e-01  -5.6093566658863669e-01  -5.0809913897267722e-01  -4.5985529058422220e-01  -4.1547477394711402e-01  -3.7438617965383397e-01  -3.3613641546706685e-01  -3.0036294734506430e-01  -2.6677403319549287e-01  -2.3513451112153433e-01  -2.0525558765949636e-01  -1.7698765173268163e-01  -1.5021557227368357e-01  -1.2485636115506291e-01  -1.0085969456530029e-01  -7.8212889086075557e-02  -5.6953751749890098e-02  -3.7197046971711070e-02  -1.9270025856660114e-02  -3.5504758431388786e-03  1.0599668511484219e-02  2.4229268380314993e-02  3.8214028638116460e-02  5.2982995010673599e-02  6.8597126176445339e-02  8.5117874561932025e-02  1.0260208938881925e-01  1.2109970559224392e-01  1.4065524873292609e-01  1.6130903839895730e-01  1.8309484008660351e-01  2.0603672708355567e-01  2.3014643314330357e-01  2.5542138771531098e-01  2.8184375404726164e-01  3.0938071542409884e-01  3.3798598042704248e-01  3.6760224213202247e-01  3.9816417651586922e-01  4.2960153028786163e-01  4.6184192681615077e-01  4.9481316117471047e-01  5.2844490023118507e-01  5.6266981210905898e-01  5.9742421082073638e-01  6.3264832409053229e-01  6.6828628921447553e-01  7.0428596586256798e-01  7.4059863476747090e-01  7.7717863219423122e-01  8.1398295411987021e-01  8.5097085169044584e-01  8.8810343046591833e-01  9.2534325960019947e-01  9.6265399278977137e-01  1.0000000000000000e+00  -2.0000000000000000e+00  -1.6181521969166361e+00  -1.3611893028864124e+00  -1.1726615200199826e+00  -1.0262131867127433e+00  -9.0775483863865347e-01  -8.0900419159475134e-01  -7.2473976152553032e-01  -6.5148869211548288e-01  -5.8684176683585532e-01  -5.2907009148108231e-01  -4.7689825044135975e-01  -4.2936375900506046e-01  -3.8572659706831475e-01  -3.4540909186767871e-01  -3.0795489652794844e-01  -2.7300039718283103e-01  -2.4025447439092756e-01  -2.0948407384081094e-01  -1.8050398656573388e-01  -1.5316986591667581e-01  -1.2737399296386195e-01  -1.0304383912851973e-01  -8.0144529551698873e-02  -5.8689421218464037e-02  -3.8773336542903068e-02  -2.0686620889099814e-02  -4.9199762915462728e-03  9.1282763153386071e-03  2.2538831899332576e-02  3.6236646201188334e-02 