<?xml version="1.0"?>
<VTKFile type="UnstructuredGrid"  version="0.1"  >
<UnstructuredGrid>
<Piece  NumberOfPoints="441" NumberOfCells="800">
<Points>
<DataArray  type="Float64"  NumberOfComponents="3"  format="ascii">0 0 0  0.05 0 0  0.1 0 0  0.15 0 0  0.2 0 0  0.25 0 0  0.3 0 0  0.35 0 0  0.4 0 0  0.45 0 0  0.5 0 0  0.55 0 0  0.6 0 0  0.65 0 0  0.7 0 0  0.75 0 0  0.8 0 0  0.85 0 0  0.9 0 0  0.95 0 0  1 0 0  0 0.05 0  0.05 0.05 0  0.1 0.05 0  0.15 0.05 0  0.2 0.05 0  0.25 0.05 0  0.3 0.05 0  0.35 0.05 0  0.4 0.05 0  0.45 0.05 0  0.5 0.05 0  0.55 0.05 0  0.6 0.05 0  0.65 0.05 0  0.7 0.05 0  0.75 0.05 0  0.8 0.05 0  0.85 0.05 0  0.9 0.05 0  0.95 0.05 0  1 0.05 0  0 0.1 0  0.05 0.1 0  0.1 0.1 0  0.15 0.1 0  0.2 0.1 0  0.25 0.1 0  0.3 0.1 0  0.35 0.1 0  0.4 0.1 0  0.45 0.1 0  0.5 0.1 0  0.55 0.1 0  0.6 0.1 0  0.65 0.1 0  0.7 0.1 0  0.75 0.1 0  0.8 0.1 0  0.85 0.1 0  0.9 0.1 0  0.95 0.1 0  1 0.1 0  0 0.15 0  0.05 0.15 0  0.1 0.15 0  0.15 0.15 0  0.2 0.15 0  0.25 0.15 0  0.3 0.15 0  0.35 0.15 0  0.4 0.15 0  0.45 0.15 0  0.5 0.15 0  0.55 0.15 0  0.6 0.15 0  0.65 0.15 0  0.7 0.15 0  0.75 0.15 0  0.8 0.15 0  0.85 0.15 0  0.9 0.15 0  0.95 0.15 0  1 0.15 0  0 0.2 0  0.05 0.2 0  0.1 0.2 0  0.15 0.2 0  0.2 0.2 0  0.25 0.2 0  0.3 0.2 0  0.35 0.2 0  0.4 0.2 0  0.45 0.2 0  0.5 0.2 0  0.55 0.2 0  0.6 0.2 0  0.65 0.2 0  0.7 0.2 0  0.75 0.2 0  0.8 0.2 0  0.85 0.2 0  0.9 0.2 0  0.95 0.2 0  1 0.2 0  0 0.25 0  0.05 0.25 0  0.1 0.25 0  0.15 0.25 0  0.2 0.25 0  0.25 0.25 0  0.3 0.25 0  0.35 0.25 0  0.4 0.25 0  0.45 0.25 0  0.5 0.25 0  0.55 0.25 0  0.6 0.25 0  0.65 0.25 0  0.7 0.25 0  0.75 0.25 0  0.8 0.25 0  0.85 0.25 0  0.9 0.25 0  0.95 0.25 0  1 0.25 0  0 0.3 0  0.05 0.3 0  0.1 0.3 0  0.15 0.3 0  0.2 0.3 0  0.25 0.3 0  0.3 0.3 0  0.35 0.3 0  0.4 0.3 0  0.45 0.3 0  0.5 0.3 0  0.55 0.3 0  0.6 0.3 0  0.65 0.3 0  0.7 0.3 0  0.75 0.3 0  0.8 0.3 0  0.85 0.3 0  0.9 0.3 0  0.95 0.3 0  1 0.3 0  0 0.35 0  0.05 0.35 0  0.1 0.35 0  0.15 0.35 0  0.2 0.35 0  0.25 0.35 0  0.3 0.35 0  0.35 0.35 0  0.4 0.35 0  0.45 0.35 0  0.5 0.35 0  0.55 0.35 0  0.6 0.35 0  0.65 0.35 0  0.7 0.35 0  0.75 0.35 0  0.8 0.35 0  0.85 0.35 0  0.9 0.35 0  0.95 0.35 0  1 0.35 0  0 0.4 0  0.05 0.4 0  0.1 0.4 0  0.15 0.4 0  0.2 0.4 0  0.25 0.4 0  0.3 0.4 0  0.35 0.4 0  0.4 0.4 0  0.45 0.4 0  0.5 0.4 0  0.55 0.4 0  0.6 0.4 0  0.65 0.4 0  0.7 0.4 0  0.75 0.4 0  0.8 0.4 0  0.85 0.4 0  0.9 0.4 0  0.95 0.4 0  1 0.4 0  0 0.45 0  0.05 0.45 0  0.1 0.45 0  0.15 0.45 0  0.2 0.45 0  0.25 0.45 0  0.3 0.45 0  0.35 0.45 0  0.4 0.45 0  0.45 0.45 0  0.5 0.45 0  0.55 0.45 0  0.6 0.45 0  0.65 0.45 0  0.7 0.45 0  0.75 0.45 0  0.8 0.45 0  0.85 0.45 0  0.9 0.45 0  0.95 0.45 0  1 0.45 0  0 0.5 0  0.05 0.5 0  0.1 0.5 0  0.15 0.5 0  0.2 0.5 0  0.25 0.5 0  0.3 0.5 0  0.35 0.5 0  0.4 0.5 0  0.45 0.5 0  0.5 0.5 0  0.55 0.5 0  0.6 0.5 0  0.65 0.5 0  0.7 0.5 0  0.75 0.5 0  0.8 0.5 0  0.85 0.5 0  0.9 0.5 0  0.95 0.5 0  1 0.5 0  0 0.55 0  0.05 0.55 0  0.1 0.55 0  0.15 0.55 0  0.2 0.55 0  0.25 0.55 0  0.3 0.55 0  0.35 0.55 0  0.4 0.55 0  0.45 0.55 0  0.5 0.55 0  0.55 0.55 0  0.6 0.55 0  0.65 0.55 0  0.7 0.55 0  0.75 0.55 0  0.8 0.55 0  0.85 0.55 0  0.9 0.55 0  0.95 0.55 0  1 0.55 0  0 0.6 0  0.05 0.6 0  0.1 0.6 0  0.15 0.6 0  0.2 0.6 0  0.25 0.6 0  0.3 0.6 0  0.35 0.6 0  0.4 0.6 0  0.45 0.6 0  0.5 0.6 0  0.55 0.6 0  0.6 0.6 0  0.65 0.6 0  0.7 0.6 0  0.75 0.6 0  0.8 0.6 0  0.85 0.6 0  0.9 0.6 0  0.95 0.6 0  1 0.6 0  0 0.65 0  0.05 0.65 0  0.1 0.65 0  0.15 0.65 0  0.2 0.65 0  0.25 0.65 0  0.3 0.65 0  0.35 0.65 0  0.4 0.65 0  0.45 0.65 0  0.5 0.65 0  0.55 0.65 0  0.6 0.65 0  0.65 0.65 0  0.7 0.65 0  0.75 0.65 0  0.8 0.65 0  0.85 0.65 0  0.9 0.65 0  0.95 0.65 0  1 0.65 0  0 0.7 0  0.05 0.7 0  0.1 0.7 0  0.15 0.7 0  0.2 0.7 0  0.25 0.7 0  0.3 0.7 0  0.35 0.7 0  0.4 0.7 0  0.45 0.7 0  0.5 0.7 0  0.55 0.7 0  0.6 0.7 0  0.65 0.7 0  0.7 0.7 0  0.75 0.7 0  0.8 0.7 0  0.85 0.7 0  0.9 0.7 0  0.95 0.7 0  1 0.7 0  0 0.75 0  0.05 0.75 0  0.1 0.75 0  0.15 0.75 0  0.2 0.75 0  0.25 0.75 0  0.3 0.75 0  0.35 0.75 0  0.4 0.75 0  0.45 0.75 0  0.5 0.75 0  0.55 0.75 0  0.6 0.75 0  0.65 0.75 0  0.7 0.75 0  0.75 0.75 0  0.8 0.75 0  0.85 0.75 0  0.9 0.75 0  0.95 0.75 0  1 0.75 0  0 0.8 0  0.05 0.8 0  0.1 0.8 0  0.15 0.8 0  0.2 0.8 0  0.25 0.8 0  0.3 0.8 0  0.35 0.8 0  0.4 0.8 0  0.45 0.8 0  0.5 0.8 0  0.55 0.8 0  0.6 0.8 0  0.65 0.8 0  0.7 0.8 0  0.75 0.8 0  0.8 0.8 0  0.85 0.8 0  0.9 0.8 0  0.95 0.8 0  1 0.8 0  0 0.85 0  0.05 0.85 0  0.1 0.85 0  0.15 0.85 0  0.2 0.85 0  0.25 0.85 0  0.3 0.85 0  0.35 0.85 0  0.4 0.85 0  0.45 0.85 0  0.5 0.85 0  0.55 0.85 0  0.6 0.85 0  0.65 0.85 0  0.7 0.85 0  0.75 0.85 0  0.8 0.85 0  0.85 0.85 0  0.9 0.85 0  0.95 0.85 0  1 0.85 0  0 0.9 0  0.05 0.9 0  0.1 0.9 0  0.15 0.9 0  0.2 0.9 0  0.25 0.9 0  0.3 0.9 0  0.35 0.9 0  0.4 0.9 0  0.45 0.9 0  0.5 0.9 0  0.55 0.9 0  0.6 0.9 0  0.65 0.9 0  0.7 0.9 0  0.75 0.9 0  0.8 0.9 0  0.85 0.9 0  0.9 0.9 0  0.95 0.9 0  1 0.9 0  0 0.95 0  0.05 0.95 0  0.1 0.95 0  0.15 0.95 0  0.2 0.95 0  0.25 0.95 0  0.3 0.95 0  0.35 0.95 0  0.4 0.95 0  0.45 0.95 0  0.5 0.95 0  0.55 0.95 0  0.6 0.95 0  0.65 0.95 0  0.7 0.95 0  0.75 0.95 0  0.8 0.95 0  0.85 0.95 0  0.9 0.95 0  0.95 0.95 0  1 0.95 0  0 1 0  0.05 1 0  0.1 1 0  0.15 1 0  0.2 1 0  0.25 1 0  0.3 1 0  0.35 1 0  0.4 1 0  0.45 1 0  0.5 1 0  0.55 1 0  0.6 1 0  0.65 1 0  0.7 1 0  0.75 1 0  0.8 1 0  0.85 1 0  0.9 1 0  0.95 1 0  1 1 0  </DataArray>
</Points>
<Cells>
[...]
<PointData  Scalars="f_6"> 
<DataArray  type="Float64"  Name="f_6"  format="ascii">-2.0000000000000000e+00  -1.8500000000000001e+00  -1.7000000000000000e+00  -1.5500000000000000e+00  -1.4000000000000001e+00  -1.2500000000000000e+00  -1.0999999999999999e+00  -9.5000000000000007e-01  -7.9999999999999993e-01  -6.5000000000000013e-01  -5.0000000000000000e-01  -3.4999999999999992e-01  -2.0000000000000007e-01  -4.9999999999999933e-02  9.9999999999999867e-02  2.5000000000000000e-01  4.0000000000000013e-01  5.4999999999999993e-01  7.0000000000000007e-01  8.4999999999999987e-01  1.0000000000000000e+00  -2.0000000000000000e+00  -1.7515177313159527e+00  -1.6189516508066950e+00  -1.4956063819208676e+00  -1.3598089821232826e+00  -1.2187030932079184e+00  -1.0751562480804571e+00  -9.3076879366095400e-01  -7.8735442085964447e-01  -6.4501662115181058e-01  -4.8956826976486023e-01  -3.2471899446171348e-01  -1.7643627834566875e-01  -3.2138968977904497e-02  1.1278551734970277e-01  2.5701916088651600e-01  4.0439198762047529e-01  5.5285775146533678e-01  7.0175698043419310e-01  8.5084238832219639e-01  1.0000000000000000e+00  -1.9999999999999998e+00  -1.7471581555405231e+00  -1.6064529597876782e+00  -1.4787859710125841e+00  -1.3441369114948121e+00  -1.2050888218994125e+00  -1.0634361978856444e+00  -9.2034774295541122e-01  -7.7654422675902157e-01  -6.3164144883668738e-01  -4.8192142865717791e-01  -3.2515832019810720e-01  -1.7505061179556392e-01  -3.0102275925366580e-02  1.1527560612486951e-01  2.6089913857588592e-01  4.0769103813004781e-01  5.5528203780667906e-01  7.0332778194923840e-01  8.5161257285459324e-01  1.0000000000000000e+00  -2.0000000000000000e+00  -1.7375513813911521e+00  -1.6025715544679617e+00  -1.4689476308469780e+00  -1.3328638709439702e+00  -1.1940790850092751e+00  -1.0531519786072971e+00  -9.1064175351602539e-01  -7.6683329438434344e-01  -6.2145134631896592e-01  -4.7354439213564947e-01  -3.2341022352990378e-01  -1.7495671005290417e-01  -2.8495129052867694e-02  1.1752004449925629e-01  2.6361074916211047e-01  4.1019098851715091e-01  5.5725157968209360e-01  7.0465953670148840e-01  8.5228012114693874e-01  1.0000000000000000e+00  -2.0000000000000000e+00  -1.7324504648561605e+00  -1.5973342458460396e+00  -1.4615691269633964e+00  -1.3242918564248167e+00  -1.1852116685864202e+00  -1.0444508780182438e+00  -9.0223399811704963e-01  -7.5869585094336101e-01  -6.1378624991918307e-01  -4.6739457003654983e-01  -3.1998147173295477e-01  -1.7287087583328092e-01  -2.6441574732456678e-02  1.1968895176291322e-01  2.6583282505614875e-01  4.1221058709435149e-01  5.5887375570305653e-01  7.0577866402768275e-01  8.5284837503167332e-01  1.0000000000000000e+00  -1.9999999999999998e+00  -1.7289585145567525e+00  -1.5927458370966401e+00  -1.4557027747357512e+00  -1.3175227592054819e+00  -1.1780248548933447e+00  -1.0372058667622084e+00  -8.9514750999056913e-01  -7.5192986135286843e-01  -6.0760323237785585e-01  -4.6226616635841189e-01  -3.1625021753208477e-01  -1.7010374681480775e-01  -2.4089245806591660e-02  1.2184451222870490e-01  2.6782101220521981e-01  4.1394477910104938e-01  5.6025419200809867e-01  7.0673298867451284e-01  8.5333471495207303e-01  1.0000000000000000e+00  -1.9999999999999998e+00  -1.7262961011036819e+00  -1.5889878132480177e+00  -1.4509733756774854e+00  -1.3120715507680143e+00  -1.1721591250192682e+00  -1.0312002241466758e+00  -8.8922031373014965e-01  -7.4627285209968652e-01  -6.0243065188095957e-01  -4.5781664548715695e-01  -3.1264948522216501e-01  -1.6720464808727345e-01  -2.1656173907807431e-02  1.2395733075327833e-01  2.6966193243497644e-01  4.1549332509652753e-01  5.6146524455377644e-01  7.0756438371019736e-01  8.5375749610210616e-01  1.0000000000000000e+00  -2.0000000000000000e+00  -1.7241805014708325e+00  -1.5859359391142638e+00  -1.4471313639581578e+00  -1.3076309431698219e+00  -1.1673398702690383e+00  -1.0262155910750776e+00  -8.8426066868366759e-01  -7.4151058143476978e-01  -5.9802987755913872e-01  -4.5392027848709132e-01  -3.0932642978214575e-01  -1.6440918640431335e-01  -1.9288132490643237e-02  1.2597905225723977e-01  2.7137606168488021e-01  4.1690134429630776e-01  5.6254907740028215e-01  7.0830180551039401e-01  8.5413088574615437e-01  1.0000000000000000e+00  -2.0000000000000000e+00  -1.7224658793004171e+00  -1.5834440777800480e+00  -1.4439851978710605e+00  -1.3039809876840771e+00  -1.1633538218119852e+00  -1.0220616012009294e+00  -8.8009618849467330e-01  -7.3747892739658627e-01  -5.9425799843373417e-01  -4.5050816111992420e-01  -3.0632676901501371e-01  -1.6181753525719075e-01  -1.7066221907692167e-02  1.2787094908144411e-01  2.7296191775099748e-01  4.1818691300354061e-01  5.6352791524065060e-01  7.0896287518494272e-01  8.5446424137211718e-01  1.0000000000000000e+00  -1.9999999999999998e+00  -1.7210561434195251e+00  -1.5813892948344510e+00  -1.4413843620619589e+00  -1.3009539878834413e+00  -1.1600328280938950e+00  -1.0185808034219825e+00  -8.7658355669751031e-01  -7.3405094122316783e-01  -5.9101502765928782e-01  -4.4752759854385737e-01  -3.0365494990079456e-01  -1.5946796370174346e-01  -1.5030168964379134e-02  1.2960904822523170e-01  2.7441374723412487e-01  4.1935647472620657e-01  5.6441279537383682e-01  7.0955753861660897e-01  8.5476320455737209e-01  1.0000000000000000e+00  -2.0000000000000000e+00  -1.7198795047685540e+00  -1.5796725960762723e+00  -1.4392089676588815e+00  -1.2984177736938356e+00  -1.1572426992581712e+00  -1.0156452276955952e+00  -8.7360629365021814e-01  -7.3112625313928836e-01  -5.8822357243639212e-01  -4.4493225549542276e-01  -3.0129746834256416e-01  -1.5736920068460922e-01  -1.3195538473312821e-02  1.3118166554973726e-01  2.7572754823406370e-01  4.2041244329332356e-01  5.6520925291188151e-01  7.1009127935028427e-01  8.5503103824076265e-01  1.0000000000000000e+00  -1.9999999999999998e+00  -1.7188780489377593e+00  -1.5782126170432043e+00  -1.4373611388034602e+00  -1.2962654399748488e+00  -1.1548749675493588e+00  -1.0131511144520093e+00  -8.7107013706847891e-01  -7.2862420524737648e-01  -5.8582075345156925e-01  -4.4268038265887727e-01  -2.9923346728943034e-01  -1.5551583222081636e-01  -1.1564449794000490e-02  1.3258560421296678e-01  2.7690233685906934e-01  4.2135649730114227e-01  5.6592049363008157e-01  7.1056728763188404e-01  8.5526966905539437e-01  1.0000000000000000e+00  -2.0000000000000000e+00  -1.7180011274233233e+00  -1.5769386843553248e+00  -1.4357575305369066e+00  -1.2944078798527410e+00  -1.1528406165124048e+00  -1.0110141254946043e+00  -8.6889893492431225e-01  -7.2647967733016927e-01  -5.8375485346363098e-01  -4.4073505439908678e-01  -2.9744018593546384e-01  -1.5389621111522506e-01  -1.0132032694839860e-02  1.3382286423706138e-01  2.7793969768810456e-01  4.2219071542209430e-01  5.6654893667541895e-01  7.1098770849177684e-01  8.5548035034893244e-01  1.0000000000000000e+00  -1.9999999999999998e+00  -1.7171989982360150e+00  -1.5757834624178668e+00  -1.4343224191360999e+00  -1.2927679323868040e+00  -1.1510654931529156e+00  -1.0091658360896909e+00  -8.6703179980399636e-01  -7.2464071568535737e-01  -5.8198392867369919e-01  -4.3906479553837502e-01  -2.9589601093811346e-01  -1.5249679360978002e-01  -8.8903341071955855e-03  1.3489818774201445e-01  2.7884287423419296e-01  4.2291773002371130e-01  5.6709682915772419e-01  7.1135425931087148e-01  8.5566402384855889e-01  1.0000000000000000e+00  -2.0000000000000000e+00  -1.7164140928988245e+00  -1.5746737479440280e+00  -1.4329807512028223e+00  -1.2912759374054599e+00  -1.1494875876227619e+00  -1.0075519259072474e+00  -8.6542171251662492e-01  -7.2306745693356489e-01  -5.8047535000743322e-01  -4.3764418814260048e-01  -2.9458226866883552e-01  -1.5130461827858571e-01  -7.8306978661771970e-03  1.3581734660399933e-01  2.7961588148294164e-01  4.2354050128083370e-01  5.6756639062089476e-01  7.1166847574542635e-01  8.5582148573443217e-01  1.0000000000000000e+00  -2.0000000000000000e+00  -1.7155652369811953e+00  -1.5735166852566005e+00  -1.4316509003257019e+00  -1.2898674784094513e+00  -1.1480569940254248e+00  -1.0061325673999122e+00  -8.6403566742169080e-01  -7.2173204952484415e-01  -5.7920582627986916e-01  -4.3645433835575803e-01  -2.9348425731604255e-01  -1.5030871296954976e-01  -6.9451856829271016e-03  1.3658601505721887e-01  2.8026280381274060e-01  4.2406200299578684e-01  5.6795975629959505e-01  7.1193176731550734e-01  8.5595344334374368e-01  1.0000000000000000e+00  -1.9999999999999998e+00  -1.7145129627353060e+00  -1.5721768557754758e+00  -1.4302386864339336e+00  -1.2884860818812183e+00  -1.1467403426695735e+00  -1.0048856822452861e+00  -8.6285634024538160e-01  -7.2061924746425110e-01  -5.7816156723144119e-01  -4.3548308168452016e-01  -2.9259170927002742e-01  -1.4950079060064339e-01  -6.2273469532006546e-03  1.3720909549506302e-01  2.8078731571501503e-01  4.2448495058997771e-01  5.6827886426619156e-01  7.1214539387326414e-01  8.5606052032503543e-01  1.0000000000000000e+00  -2.0000000000000000e+00  -1.7129709691280590e+00  -1.5704390886760637e+00  -1.4286409077533386e+00  -1.2870978200119150e+00  -1.1455326125263641e+00  -1.0038134786662767e+00  -8.6188476385029789e-01  -7.1972703285533834e-01  -5.7733811349712227e-01  -4.3472471188085404e-01  -2.9189870747890395e-01  -1.4887539320979545e-01  -5.6725070242954626e-03  1.3769039816121914e-01  2.8119241296227870e-01  4.2481161938291773e-01  5.6852535630192946e-01  7.1231042358632179e-01  8.5614324408313391e-01  1.0000000000000000e+00  -1.9999999999999998e+00  -1.7102489843907716e+00  -1.5679676220473824e+00  -1.4267880358914418e+00  -1.2857316778867391e+00  -1.1444788087576907e+00  -1.0029508560431595e+00  -8.6114220363419491e-01  -7.1906600660968234e-01  -5.7673914202085530e-01  -4.3417894486286956e-01  -2.9140301555493936e-01  -1.4842956773533872e-01  -5.2776860954051380e-03  1.3803259121183048e-01  2.8148031858996297e-01  4.2504375767748509e-01  5.6870051797228727e-01  7.1242770008695977e-01  8.5620203242117987e-01  1.0000000000000000e+00  -2.0000000000000000e+00  -1.7044131899415247e+00  -1.5643943792312520e+00  -1.4248119358783071e+00  -1.2845620468859096e+00  -1.1437000885745003e+00  -1.0023689331144761e+00  -8.6066718803363962e-01  -7.1865564792834158e-01  -5.7637350311374702e-01  -4.3384890999482950e-01  -2.9110484214264593e-01  -1.4816217608121462e-01  -5.0412608338172024e-03  1.3823733419154541e-01  2.8165251250825746e-01  4.2518257476477217e-01  5.6880525782277502e-01  7.1249782636805037e-01  8.5623718551462580e-01  1.0000000000000000e+00  -2.0000000000000000e+00  -1.6892470362640546e+00  -1.5603847690577959e+00  -1.4235032815046254e+00  -1.2840044852040922e+00  -1.1433905655399250e+00  -1.0021575998066057e+00  -8.6050196745754559e-01  -7.1851589395629756e-01  -5.7625031251096170e-01  -4.3373834986005538e-01  -2.9100526693960077e-01  -1.4807303361305629e-01  -4.9625153501947758e-03  1.3830549387991126e-01  2.8170982248674936e-01  4.2522877105057116e-01  5.6884011218599073e-01  7.1252116204784133e-01  8.5624888326927340e-01  1.0000000000000000e+00  </DataArray> 
</PointData> 
</Piece>
</UnstructuredGrid>
</VTKFile>