<?xml version="1.0"?>
<VTKFile type="UnstructuredGrid"  version="0.1"  >
<UnstructuredGrid>
<Piece  NumberOfPoints="4225" NumberOfCells="8192">
<Points>
<DataArray  type="Float64"  NumberOfComponents="3"  format="ascii">0 0 0  0.015625 0 0  0.03125 0 0  0.046875 0 0  0.0625 0 0  0.078125 0 0  0.09375 0 0  0.109375 0 0  0.125 0 0  0.140625 0 0  0.15625 0 0  0.171875 0 0  0.1875 0 0  0.203125 0 0  0.21875 0 0  0.234375 0 0  0.25 0 0  0.265625 0 0  0.28125 0 0  0.296875 0 0  0.3125 0 0  0.328125 0 0  0.34375 0 0  0.359375 0 0  0.375 0 0  0.390625 0 0  0.40625 0 0  0.421875 0 0  0.4375 0 0  0.453125 0 0  0.46875 0 0  0.484375 0 0  0.5 0 0  0.515625 0 0  0.53125 0 0  0.546875 0 0  0.5625 0 0  0.578125 0 0  0.59375 0 0  0.609375 0 0  0.625 0 0  0.640625 0 0  0.65625 0 0  0.671875 0 0  0.6875 0 0  0.703125 0 0  0.71875 0 0  0.734375 0 0  0.75 0 0  0.765625 0 0  0.78125 0 0  0.796875 0 0  0.8125 0 0  0.828125 0 0  0.84375 0 0  0.859375 0 0  0.875 0 0  0.890625 0 0  0.90625 0 0  0.921875 0 0  0.9375 0 0  0.953125 0 0  0.96875 0 0  0.984375 0 0  1 0 0  0 0.015625 0  0.015625 0.015625 0  0.03125 0.015625 0  0.046875 0.015625 0  0.0625 0.015625 0  0.078125 0.015625 0  0.09375 0.015625 0  0.109375 0.015625 0  0.125 0.015625 0  0.140625 0.015625 0  0.15625 0.015625 0  0.171875 0.015625 0  0.1875 0.015625 0  0.203125 0.015625 0  0.21875 0.015625 0  0.234375 0.015625 0  0.25 0.015625 0  0.265625 0.015625 0  0.28125 0.015625 0  0.296875 0.015625 0  0.3125 0.015625 0  0.328125 0.015625 0  0.34375 0.015625 0  0.359375 0.015625 0  0.375 0.015625 0  0.390625 0.015625 0  0.40625 0.015625 0  0.421875 0.015625 0  0.4375 0.015625 0  0.453125 0.015625 0  0.46875 0.015625 0  0.484375 0.015625 0  0.5 0.015625 0  0.515625 0.015625 0  0.53125 0.015625 0  0.546875 0.015625 0  0.5625 0.015625 0  0.578125 0.015625 0  0.59375 0.015625 0  0.609375 0.015625 0  0.625 0.015625 0  0.640625 0.015625 0  0.65625 0.015625 0  0.671875 0.015625 0  0.6875 0.015625 0  0.703125 0.015625 0  0.71875 0.015625 0  0.734375 0.015625 0  0.75 0.015625 0  0.765625 0.015625 0  0.78125 0.015625 0  0.796875 0.015625 0  0.8125 0.015625 0  0.828125 0.015625 0  0.84375 0.015625 0  0.859375 0.015625 0  0.875 0.015625 0  0.890625 0.015625 0  0.90625 0.015625 0  0.921875 0.015625 0  0.9375 0.015625 0  0.953125 0.015625 0  0.96875 0.015625 0  0.984375 0.015625 0  1 0.015625 0  0 0.03125 0  0.015625 0.03125 0  0.03125 0.03125 0  0.046875 0.03125 0  0.0625 0.03125 0  0.078125 0.03125 0  0.09375 0.03125 0  0.109375 0.03125 0  0.125 0.03125 0  0.140625 0.03125 0  0.15625 0.03125 0  0.171875 0.03125 0  0.1875 0.03125 0  0.203125 0.03125 0  0.21875 0.03125 0  0.234375 0.03125 0  0.25 0.03125 0  0.265625 0.03125 0  0.28125 0.03125 0  0.296875 0.03125 0  0.3125 0.03125 0  0.328125 0.03125 0  0.34375 0.03125 0  0.359375 0.03125 0  0.375 0.03125 0  0.390625 0.03125 0  0.40625 0.03125 0  0.421875 0.03125 0  0.4375 0.03125 0  0.453125 0.03125 0  0.46875 0.03125 0  0.484375 0.03125 0  0.5 0.03125 0  0.515625 0.03125 0  0.53125 0.03125 0  0.546875 0.03125 0  0.5625 0.03125 0  0.578125 0.03125 0  0.59375 0.03125 0  0.609375 0.03125 0  0.625 0.03125 0  0.640625 0.03125 0  0.65625 0.03125 0  0.671875 0.03125 0  0.6875 0.03125 0  0.703125 0.03125 0  0.71875 0.03125 0  0.734375 0.03125 0  0.75 0.03125 0  0.765625 0.03125 0  0.78125 0.03125 0  0.796875 0.03125 0  0.8125 0.03125 0  0.828125 0.03125 0  0.84375 0.03125 0  0.859375 0.03125 0  0.875 0.03125 0  0.890625 0.03125 0  0.90625 0.03125 0  0.921875 0.03125 0  0.9375 0.03125 0  0.953125 0.03125 0  0.96875 0.03125 0  0.984375 0.03125 0  1 0.03125 0  0 0.046875 0  0.015625 0.046875 0  0.03125 0.046875 0  0.046875 0.046875 0  0.0625 0.046875 0  0.078125 0.046875 0  0.09375 0.046875 0  0.109375 0.046875 0  0.125 0.046875 0  0.140625 0.046875 0  0.15625 0.046875 0  0.171875 0.046875 0  0.1875 0.046875 0  0.203125 0.046875 0  0.21875 0.046875 0  0.234375 0.046875 0  0.25 0.046875 0  0.265625 0.046875 0  0.28125 0.046875 0  0.296875 0.046875 0  0.3125 0.046875 0  0.328125 0.046875 0  0.34375 0.046875 0  0.359375 0.046875 0  0.375 0.046875 0  0.390625 0.046875 0  0.40625 0.046875 0  0.421875 0.046875 0  0.4375 0.046875 0  0.453125 0.046875 0  0.46875 0.046875 0  0.484375 0.046875 0  0.5 0.046875 0  0.515625 0.046875 0  0.53125 0.046875 0  0.546875 0.046875 0  0.5625 0.046875 0  0.578125 0.046875 0  0.59375 0.046875 0  0.609375 0.046875 0  0.625 0.046875 0  0.640625 0.046875 0  0.65625 0.046875 0  0.671875 0.046875 0  0.6875 0.046875 0  0.703125 0.046875 0  0.71875 0.046875 0  0.734375 0.046875 0  0.75 0.046875 0  0.765625 0.046875 0  0.78125 0.046875 0  0.796875 0.046875 0  0.8125 0.046875 0  0.828125 0.046875 0  0.84375 0.046875 0  0.859375 0.046875 0  0.875 0.046875 0  0.890625 0.046875 0  0.90625 0.046875 0  0.921875 0.046875 0  0.9375 0.046875 0  0.953125 0.046875 0  0.96875 0.046875 0  0.984375 0.046875 0  1 0.046875 0  0 0.0625 0  0.015625 0.0625 0  0.03125 0.0625 0  0.046875 0.0625 0  0.0625 0.0625 0  0.078125 0.0625 0  0.09375 0.0625 0  0.109375 0.0625 0  0.125 0.0625 0  0.140625 0.0625 0  0.15625 0.0625 0  0.171875 0.0625 0  0.1875 0.0625 0  0.203125 0.0625 0  0.21875 0.0625 0  0.234375 0.0625 0  0.25 0.0625 0  0.265625 0.0625 0  0.28125 0.0625 0  0.296875 0.0625 0  0.3125 0.0625 0  0.328125 0.0625 0  0.34375 0.0625 0  0.359375 0.0625 0  0.375 0.0625 0  0.390625 0.0625 0  0.40625 0.0625 0  0.421875 0.0625 0  0.4375 0.0625 0  0.453125 0.0625 0  0.46875 0.0625 0  0.484375 0.0625 0  0.5 0.0625 0  0.515625 0.0625 0  0.53125 0.0625 0  0.546875 0.0625 0  0.5625 0.0625 0  0.578125 0.0625 0  0.59375 0.0625 0  0.609375 0.0625 0  0.625 0.0625 0  0.640625 0.0625 0  0.65625 0.0625 0  0.671875 0.0625 0  0.6875 0.0625 0  0.703125 0.0625 0  0.71875 0.0625 0  0.734375 0.0625 0  0.75 0.0625 0  0.765625 0.0625 0  0.78125 0.0625 0  0.796875 0.0625 0  0.8125 0.0625 0  0.828125 0.0625 0  0.84375 0.0625 0  0.859375 0.0625 0  0.875 0.0625 0  0.890625 0.0625 0  0.90625 0.0625 0  0.921875 0.0625 0  0.9375 0.0625 0  0.953125 0.0625 0  0.96875 0.0625 0  0.984375 0.0625 0  1 0.0625 0  0 0.078125 0  0.015625 0.078125 0  0.03125 0.078125 0  0.046875 0.078125 0  0.0625 0.078125 0  0.078125 0.078125 0  0.09375 0.078125 0  0.109375 0.078125 0  0.125 0.078125 0  0.140625 0.078125 0  0.15625 0.078125 0  0.171875 0.078125 0  0.1875 0.078125 0  0.203125 0.078125 0  0.21875 0.078125 0  0.234375 0.078125 0  0.25 0.078125 0  0.265625 0.078125 0  0.28125 0.078125 0  0.296875 0.078125 0  0.3125 0.078125 0  0.328125 0.078125 0  0.34375 0.078125 0  0.359375 0.078125 0  0.375 0.078125 0  0.390625 0.078125 0  0.40625 0.078125 0  0.421875 0.078125 0  0.4375 0.078125 0  0.453125 0.078125 0  0.46875 0.078125 0  0.484375 0.078125 0  0.5 0.078125 0  0.515625 0.078125 0  0.53125 0.078125 0  0.546875 0.078125 0  0.5625 0.078125 0  0.578125 0.078125 0  0.59375 0.078125 0  0.609375 0.078125 0  0.625 0.078125 0  0.640625 0.078125 0  0.65625 0.078125 0  0.671875 0.078125 0  0.6875 0.078125 0  0.703125 0.078125 0  0.71875 0.078125 0  0.734375 0.078125 0  0.75 0.078125 0  0.765625 0.078125 0  0.78125 0.078125 0  0.796875 0.078125 0  0.8125 0.078125 0  0.828125 0.078125 0  0.84375 0.078125 0  0.859375 0.078125 0  0.875 0.078125 0  0.890625 0.078125 0  0.90625 0.078125 0  0.921875 0.078125 0  0.9375 0.078125 0  0.953125 0.078125 0  0.96875 0.078125 0  0.984375 0.078125 0  1 0.078125 0  0 0.09375 0  0.015625 0.09375 0  0.03125 0.09375 0  0.046875 0.09375 0  0.0625 0.09375 0  0.078125 0.09375 0  0.09375 0.09375 0  0.109375 0.09375 0  0.125 0.09375 0  0.140625 0.09375 0  0.15625 0.09375 0  0.171875 0.09375 0  0.1875 0.09375 0  0.203125 0.09375 0  0.21875 0.09375 0  0.234375 0.09375 0  0.25 0.09375 0  0.265625 0.09375 0  0.28125 0.09375 0  0.296875 0.09375 0  0.3125 0.09375 0  0.328125 0.09375 0  0.34375 0.09375 0  0.359375 0.09375 0  0.375 0.09375 0  0.390625 0.09375 0  0.40625 0.09375 0  0.421875 0.09375 0  0.4375 0.09375 0  0.453125 0.09375 0  0.46875 0.09375 0  0.484375 0.09375 0  0.5 0.09375 0  0.515625 0.09375 0  0.53125 0.09375 0  0.546875 0.09375 0  0.5625 0.09375 0  0.578125 0.09375 0  0.59375 0.09375 0  0.609375 0.09375 0  0.625 0.09375 0  0.640625 0.09375 0  0.65625 0.09375 0  0.671875 0.09375 0  0.6875 0.09375 0  0.703125 0.09375 0  0.71875 0.09375 0  0.734375 0.09375 0  0.75 0.09375 0  0.765625 0.09375 0  0.78125 0.09375 0  0.796875 0.09375 0  0.8125 0.09375 0  0.828125 0.09375 0  0.84375 0.09375 0  0.859375 0.09375 0  0.875 0.09375 0  0.890625 0.09375 0  0.90625 0.09375 0  0.921875 0.09375 0  0.9375 0.09375 0  0.953125 0.09375 0  0.96875 0.09375 0  0.984375 0.09375 0  1 0.09375 0  0 0.109375 0  0.015625 0.109375 0  0.03125 0.109375 0  0.046875 0.109375 0  0.0625 0.109375 0  0.078125 0.109375 0  0.09375 0.109375 0  0.109375 0.109375 0  0.125 0.109375 0  0.140625 0.109375 0  0.15625 0.109375 0  0.171875 0.109375 0  0.1875 0.109375 0  0.203125 0.109375 0  0.21875 0.109375 0  0.234375 0.109375 0  0.25 0.109375 0  0.265625 0.109375 0  0.28125 0.109375 0  0.296875 0.109375 0  0.3125 0.109375 0  0.328125 0.109375 0  0.34375 0.109375 0  0.359375 0.109375 0  0.375 0.109375 0  0.390625 0.109375 0  0.40625 0.109375 0  0.421875 0.109375 0  0.4375 0.109375 0  0.453125 0.109375 0  0.46875 0.109375 0  0.484375 0.109375 0  0.5 0.109375 0  0.515625 0.109375 0  0.53125 0.109375 0  0.546875 0.109375 0  0.5625 0.109375 0  0.578125 0.109375 0  0.59375 0.109375 0  0.609375 0.109375 0  0.625 0.109375 0  0.640625 0.109375 0  0.65625 0.109375 0  0.671875 0.109375 0  0.6875 0.109375 0  0.703125 0.109375 0  0.71875 0.109375 0  0.734375 0.109375 0  0.75 0.109375 0  0.765625 0.109375 0  0.78125 0.109375 0  0.796875 0.109375 0  0.8125 0.109375 0  0.828125 0.109375 0  0.84375 0.109375 0  0.859375 0.109375 0  0.875 0.109375 0  0.890625 0.109375 0  0.90625 0.109375 0  0.921875 0.109375 0  0.9375 0.109375 0  0.953125 0.109375 0  0.96875 0.109375 0  0.984375 0.109375 0  1 0.109375 0  0 0.125 0  0.015625 0.125 0  0.03125 0.125 0  0.046875 0.125 0  0.0625 0.125 0  0.078125 0.125 0  0.09375 0.125 0  0.109375 0.125 0  0.125 0.12
[...]
<PointData  Scalars="f_6"> 
<DataArray  type="Float64"  Name="f_6"  format="ascii">-2.0000000000000000e+00  -1.9531250000000000e+00  -1.9062500000000000e+00  -1.8593750000000000e+00  -1.8125000000000000e+00  -1.7656250000000000e+00  -1.7187500000000000e+00  -1.6718750000000000e+00  -1.6250000000000000e+00  -1.5781250000000000e+00  -1.5312500000000000e+00  -1.4843750000000000e+00  -1.4375000000000000e+00  -1.3906250000000000e+00  -1.3437500000000000e+00  -1.2968750000000000e+00  -1.2500000000000000e+00  -1.2031250000000000e+00  -1.1562500000000000e+00  -1.1093750000000000e+00  -1.0625000000000000e+00  -1.0156250000000000e+00  -9.6875000000000000e-01  -9.2187500000000000e-01  -8.7500000000000000e-01  -8.2812500000000000e-01  -7.8125000000000000e-01  -7.3437500000000000e-01  -6.8750000000000000e-01  -6.4062500000000000e-01  -5.9375000000000000e-01  -5.4687500000000000e-01  -5.0000000000000000e-01  -4.5312500000000000e-01  -4.0625000000000000e-01  -3.5937500000000000e-01  -3.1250000000000000e-01  -2.6562500000000000e-01  -2.1875000000000000e-01  -1.7187500000000000e-01  -1.2500000000000000e-01  -7.8125000000000000e-02  -3.1250000000000000e-02  1.5625000000000000e-02  6.2500000000000000e-02  1.0937500000000000e-01  1.5625000000000000e-01  2.0312500000000000e-01  2.5000000000000000e-01  2.9687500000000000e-01  3.4375000000000000e-01  3.9062500000000000e-01  4.3750000000000000e-01  4.8437500000000000e-01  5.3125000000000000e-01  5.7812500000000000e-01  6.2500000000000000e-01  6.7187500000000000e-01  7.1875000000000000e-01  7.6562500000000000e-01  8.1250000000000000e-01  8.5937500000000000e-01  9.0625000000000000e-01  9.5312500000000000e-01  1.0000000000000000e+00  -2.0000000000000000e+00  -1.9129155284976311e+00  -1.8326053535232767e+00  -1.7576355184083716e+00  -1.6870766225475253e+00  -1.6202513040162962e+00  -1.5566324248318217e+00  -1.4957938768371448e+00  -1.4373829884097022e+00  -1.3811032017907454e+00  -1.3267022771029753e+00  -1.2739637814999609e+00  -1.2227006896695662e+00  -1.1727504259167614e+00  -1.1239709373504601e+00  -1.0762375313192403e+00  -1.0294402950319652e+00  -9.8348196823180234e-01  -9.3827617452828083e-01  -8.9374594090095094e-01  -8.4982245221191965e-01  -8.0644400091326884e-01  -7.6355510319798336e-01  -7.2110576272561377e-01  -6.7905087253067631e-01  -6.3734975569385732e-01  -5.9596585765038457e-01  -5.5486662065614023e-01  -5.1402359435472689e-01  -4.7341284727235372e-01  -4.3301566387064944e-01  -3.9281913954876718e-01  -3.5281543018215739e-01  -3.1299829343724983e-01  -2.7336134262462392e-01  -2.3392080170000545e-01  -1.9476175594674683e-01  -1.5600898022840440e-01  -1.1756976571917457e-01  -7.9195504717038651e-02  -4.4565684461305398e-02  -1.1903275539090376e-02  2.1776233114077028e-02  5.7384274174211762e-02  9.6125071627053471e-02  1.3799720911138075e-01  1.8129312494427804e-01  2.2535758157565514e-01  2.6989573187089139e-01  3.1475457009428881e-01  3.5984499231380090e-01  4.0511030775194412e-01  4.5051193777104753e-01  4.9602222435422216e-01  5.4162049434833714e-01  5.8729075168533229e-01  6.3302024570954041e-01  6.7879854037645837e-01  7.2461688431640603e-01  7.7046776902169645e-01  8.1634460846295764e-01  8.6224149894600521e-01  9.0815303272068504e-01  9.5407414758450659e-01  1.0000000000000000e+00  -2.0000000000000000e+00  -1.8758708995188647e+00  -1.7667866662978178e+00  -1.6692990791873892e+00  -1.5810254878330239e+00  -1.5002394071939047e+00  -1.4256419546005015e+00  -1.3562275888958937e+00  -1.2912005237409796e+00  -1.2299199167897794e+00  -1.1718623541998789e+00  -1.1165952692397751e+00  -1.0637575744886716e+00  -1.0130452241472476e+00  -9.6420024579781982e-01  -9.1700227406478929e-01  -8.7126192613903064e-01  -8.2681555762890879e-01  -7.8352106928182486e-01  -7.4125452552044968e-01  -6.9990740944630947e-01  -6.5938438546072575e-01  -6.1960147618142580e-01  -5.8048458913583556e-01  -5.4196835384421094e-01  -5.0399525421625335e-01  -4.6651506900106771e-01  -4.2948467189772482e-01  -3.9286830100755327e-01  -3.5663847534861076e-01  -3.2077772813952909e-01  -2.8528089036706261e-01  -2.5015579908382024e-01  -2.1541714015961588e-01  -1.8107196914101101e-01  -1.4715593674526148e-01  -1.1387705082885621e-01  -8.1815542660113066e-02  -5.1100752105753461e-02  -2.3028114665181648e-02  3.0563683442999218e-03  2.9816289391386176e-02  5.8768701319955305e-02  9.0812134310750109e-02  1.2661880322262134e-01  1.6519563987419189e-01  2.0556770909007621e-01  2.4711646948745108e-01  2.8947077581362152e-01  3.3240255619246312e-01  3.7576509140897058e-01  4.1945930092292799e-01  4.6341521897802385e-01  5.0758146529750392e-01  5.5191900135379379e-01  5.9639726668345183e-01  6.4099169077637108e-01  6.8568203147988782e-01  7.3045122786746919e-01  7.7528458330742211e-01  8.2016916588412858e-01  8.6509335460037828e-01  9.1004648435222801e-01  9.5501855761734133e-01  1.0000000000000000e+00  -2.0000000000000000e+00  -1.8413941276236272e+00  -1.7074366851591516e+00  -1.5917341665561859e+00  -1.4899961094843650e+00  -1.3992200087074194e+00  -1.3172294300124843e+00  -1.2424001547275914e+00  -1.1734905469675574e+00  -1.1095322076489724e+00  -1.0497569728093217e+00  -9.9354667118014928e-01  -9.4039762613730382e-01  -8.8989499992584442e-01  -8.4169388295443781e-01  -7.9550511395216861e-01  -7.5108448718957777e-01  -7.0822442983102507e-01  -6.6674751134671151e-01  -6.2650133353993498e-01  -5.8735447775702998e-01  -5.4919327620037472e-01  -5.1191924048470905e-01  -4.7544703168061508e-01  -4.3970289835721210e-01  -4.0462354788500932e-01  -3.7015545915074965e-01  -3.3625470750722447e-01  -3.0288748262079190e-01  -2.7003166774768012e-01  -2.3768012174727990e-01  -2.0584641589799604e-01  -1.7457151701510615e-01  -1.4392084636781910e-01  -1.1393411525055304e-01  -8.4651440799669880e-02  -5.6168186244260163e-02  -3.0841698496716891e-02  -7.8015831841902290e-03  1.4472738616882301e-02  3.6903086243851670e-02  6.1509852225628193e-02  8.9499526305329952e-02  1.2047675852621198e-01  1.5434236707848992e-01  1.9059883807268876e-01  2.2866560205438388e-01  2.6806981147045156e-01  3.0846834570368048e-01  3.4961978745297162e-01  3.9135351620669029e-01  4.3354658555277381e-01  4.7610817192061583e-01  5.1896941650397610e-01  5.6207677908588238e-01  6.0538762291831005e-01  6.4886721923260449e-01  6.9248666689925265e-01  7.3622141236616090e-01  7.8005017045639446e-01  8.2395411716575673e-01  8.6791626921915133e-01  9.1192099247050817e-01  9.5595359853263051e-01  1.0000000000000000e+00  -2.0000000000000000e+00  -1.8091716820058659e+00  -1.6535960042367732e+00  -1.5230278710272285e+00  -1.4109210154117406e+00  -1.3128776674039973e+00  -1.2258214768076086e+00  -1.1475278924721513e+00  -1.0763434199501813e+00  -1.0110103228764300e+00  -9.5055300617782235e-01  -8.9420197013430092e-01  -8.4134147125658321e-01  -7.9147261298760974e-01  -7.4418675797907385e-01  -6.9914601516073527e-01  -6.5606868332858903e-01  -6.1471823683447502e-01  -5.7489488945184541e-01  -5.3642906786415256e-01  -4.9917632458373823e-01  -4.6301335693817708e-01  -4.2783489645777556e-01  -3.9355130613637107e-01  -3.6008678129285293e-01  -3.2737810039047555e-01  -2.9537392549573133e-01  -2.6403473463653532e-01  -2.3333364004913756e-01  -2.0325870281187758e-01  -1.7381811215356222e-01  -1.4505133780679325e-01  -1.1704941194001131e-01  -8.9983373476050024e-02  -6.3985285080153054e-02  -3.9258064801198443e-02  -1.7020084673678267e-02  3.0406230771162840e-03  2.2754484871780608e-02  4.3149616145552371e-02  6.5134917964344591e-02  8.9820506961944963e-02  1.1724279314952435e-01  1.4725300641027797e-01  1.7967506849243750e-01  2.1419174328368945e-01  2.5042604958431908e-01  2.8802882863629087e-01  3.2671300807767717e-01  3.6625473170905259e-01  4.0648260041204498e-01  4.4726535316086102e-01  4.8850146664768923e-01  5.3011124971190238e-01  5.7203107556744903e-01  6.1420922667130184e-01  6.5660289633648383e-01  6.9917600451835771e-01  7.4189758424152730e-01  7.8474056898623801e-01  8.2768086310335254e-01  8.7069661263996179e-01  9.1376761777802284e-01  9.5687484404267242e-01  1.0000000000000000e+00  -2.0000000000000000e+00  -1.7790039880089898e+00  -1.6045467208582120e+00  -1.4617473389036908e+00  -1.3415681343215704e+00  -1.2381740481203665e+00  -1.1476135185059662e+00  -1.0671059196958950e+00  -9.9463213132936468e-01  -9.2868713574538653e-01  -8.6812411430568281e-01  -8.1205264456903314e-01  -7.5977016334121417e-01  -7.1071458889752148e-01  -6.6443080659728915e-01  -6.2054647922755590e-01  -5.7875427856545958e-01  -5.3879863439426334e-01  -5.0046572547734447e-01  -4.6357584195917861e-01  -4.2797751623280206e-01  -3.9354300095738670e-01  -3.6016480056666544e-01  -3.2775305668845856e-01  -2.9623366120039518e-01  -2.6554703054167683e-01  -2.3564752998943847e-01  -2.0650362337217343e-01  -1.7809905648781274e-01  -1.5043593287071802e-01  -1.2354196687079515e-01  -9.7489267586247666e-02  -7.2443223208342331e-02  -4.8756008744514898e-02  -2.6933810752033910e-02  -7.1712272689205634e-03  1.1051939892499483e-02  2.8754932096384828e-02  4.7473324421793736e-02  6.8130294997919977e-02  9.0666462506029361e-02  1.1539446450828272e-01  1.4239813292054454e-01  1.7161740547293811e-01  2.0291315719729264e-01  2.3606701698531266e-01  2.7081802436291202e-01  3.0690644541271528e-01  3.4410012626168474e-01  3.8220353089351672e-01  4.2105680057157618e-01  4.6053076003093574e-01  5.0052109179737780e-01  5.4094304012849515e-01  5.8172704680070941e-01  6.2281531186296357e-01  6.6415913492367129e-01  7.0571687059616717e-01  7.4745235109535213e-01  7.8933365814367762e-01  8.3133215362145385e-01  8.7342170045932011e-01  9.1557802195894944e-01  9.5777815986003634e-01  1.0000000000000000e+00  -2.0000000000000000e+00  -1.7507443532053197e+00  -1.5597257989901963e+00  -1.4067891285349527e+00  -1.2802678883147072e+00  -1.1729005300824966e+00  -1.0799098824335935e+00  -9.9801290284183641e-01  -9.2487228343116645e-01  -8.5877488253297651e-01  -7.9843410857501607e-01  -7.4286361881229068e-01  -6.9129386264651782e-01  -6.4311533471367899e-01  -5.9783902181382886e-01  -5.5506823476816980e-01  -5.1447817126374329e-01  -4.7580085031241653e-01  -4.3881385986072924e-01  -4.0333186817721706e-01  -3.6920018189216786e-01  -3.3628985683627649e-01  -3.0449402387942925e-01  -2.7372520757747443e-01  -2.4391350698911632e-01  -2.1500558081448651e-01  -1.8696442905028002e-01  -1.5977002547971955e-01  -1.3342116785411143e-01  -1.0793963988450810e-01  -8.3380176738532749e-02  -5.9852297691665148e-02  -3.7552950610748502e-02  -1.7831992635482456e-02  -8.2070761808794899e-05  1.6786198166983776e-02  3.3491030356499932e-02  5.1026611967182459e-02  7.0253585721089543e-02  9.1231776918304475e-02  1.1400617255357011e-01  1.3869275564461195e-01  1.6533786855143304e-01  1.9390532536363719e-01  2.2429313783848243e-01  2.5634514309735662e-01  2.8987258546930106e-01  3.2467880238997410e-01  3.6057752066282983e-01  3.9740246503175364e-01  4.3501031094980702e-01  4.7327979459392799e-01  5.1210910038239132e-01  5.5141277220399143e-01  5.9111875964392946e-01  6.3116583905617207e-01  6.7150146089907081e-01  7.1207999184728776e-01  7.5286129140003599e-01  7.9380955887166671e-01  8.3489239277946470e-01  8.7608001361691545e-01  9.1734460973841814e-01  9.5865977343852371e-01  1.0000000000000000e+00  -2.0000000000000000e+00  -1.7242739908366302e+00  -1.5186761646750393e+00  -1.3572831710261157e+00  -1.2257413352541806e+00  -1.1154077277866126e+00  -1.0207408297874332e+00  -9.3800997304625611e-01  -8.6460371791483348e-01  -7.9863493158608756e-01  -7.3870336979969697e-01  -6.8374672480895415e-01  -6.3294375589180030e-01  -5.8564933014833354e-01  -5.4134969808760447e-01  -4.9963099241835018e-01  -4.6015660288118398e-01  -4.2265065645470923e-01  -3.8688579478527896e-01  -3.5267404561431120e-01  -3.1985997622664564e-01  -2.8831557861059964e-01  -2.5793652011583096e-01  -2.2863953495663292e-01  -2.0036085501525375e-01  -1.7305568844113534e-01  -1.4669881261053830e-01  -1.2128632538876936e-01  -9.6839220681452176e-02  -7.3412693676581112e-02  -5.1117719601427566e-02  -3.0198033383906212e-02  -1.1646199405111014e-02  4.8120437827628183e-03  2.0549284838872427e-02  3.6560939165289852e-02  5.3418763984881650e-02  7.1606899694755546e-02  9.1282629577077515e-02  1.1253705440063833e-01  1.3543369514533465e-01  1.6003251696516202e-01  1.8635526027693836e-01  2.1437288959169523e-01  2.4400892569564323e-01  2.7514783209633054e-01  3.0764837202696144e-01  3.4135865801504994e-01  3.7612868896790680e-01  4.1181849762086109e-01  4.4830218360197027e-01  4.8546900701257806e-01  5.2322274293426796e-01  5.6148018866114990e-01  6.0016938051484481e-01  6.3922782381872501e-01  6.7860087776915190e-01  7.1824034449387719e-01  7.5810326378583759e-01  7.9815089316348864e-01  8.3834784500782311e-01  8.7866135149045865e-01  9.1906062993928372e-01  9.5951632415564059e-01  1.0000000000000000e+00  -2.0000000000000000e+00  -1.6994906756728354e+00  -1.4810175299504043e+00  -1.3125298741876035e+00  -1.1769885317681641e+00  -1.0644352394564187e+00  -9.6862927610293237e-01  -8.8544434264569116e-01  -8.1203395655077659e-01  -7.4636585958812729e-01  -6.8694742458293545e-01  -6.3265612221127487e-01  -5.8263076241112832e-01  -5.3619941868277965e-01  -4.9283031592049126e-01  -4.5209755805984769e-01  -4.1365672100171091e-01  -3.7722717556513052e-01  -3.4257911576929123e-01  -3.0952395937862359e-01  -2.7790723219209540e-01  -2.4760334481090368e-01  -2.1851188361249052e-01  -1.9055521438664749e-01  -1.6367738416816749e-01  -1.3784453818110459e-01  -1.1304724947965157e-01  -8.9304809424232329e-02  -6.6673088914437920e-02  -4.5263706782097055e-02  -2.5347946831999934e-02  -7.6914528183570294e-03  8.0250470366006847e-03  2.2904409435376593e-02  3.8176239289562777e-02  5.4561924262166939e-02  7.2016186722981240e-02  9.0699593249880570e-02  1.1073297849182662e-01  1.3220011596183670e-01  1.5515903666196829e-01  1.7964835679376318e-01  2.0567776599946311e-01  2.3322204703056232e-01  2.6222184325606462e-01  2.9258888756536100e-01  3.2421441252716438e-01  3.5697876867535788e-01  3.9076007957288639e-01  4.2544065288181387e-01  4.6091091882463497e-01  4.9707130692014589e-01  5.3383267568095294e-01  5.7111585899149564e-01  6.0885074993557498e-01  6.4697519793473135e-01  6.8543388186493526e-01  7.2417724457323196e-01  7.6316052608594875e-01  8.0234290498862726e-01  8.4168674259788057e-01  8.8115691739781254e-01  9.2072023437261763e-01  9.6034489324475458e-01  1.0000000000000000e+00  -2.0000000000000000e+00  -1.6763031595578233e+00  -1.4464278675513980e+00  -1.2719575954929974e+00  -1.1332138460370911e+00  -1.0190007152346283e+00  -9.2244285778683766e-01  -8.3906586989389464e-01  -7.6582211874362505e-01  -7.0055828433123257e-01  -6.4170653615001638e-01  -5.8809650382880496e-01  -5.3883606733553346e-01  -4.9323315232214049e-01  -4.5074291205353906e-01  -4.1093115944375852e-01  -3.7344851416548602e-01  -3.3801181008146258e-01  -3.0439055268846954e-01  -2.7239698578815053e-01  -2.4187881931915722e-01  -2.1271400061912110e-01  -1.8480715341746135e-01  -1.5808752990999844e-01  -1.3250862728752097e-01  -1.0805021429603155e-01  -8.4724522489225434e-02  -6.2587502388429223e-02  -4.1749642167849078e-02  -2.2481824384815670e-02  -5.4323811242833805e-03  9.7826957272261206e-03  2.4211359322304428e-02  3.8939964394554688e-02  5.4689338621835136e-02  7.1494331870833872e-02  8.9384465394995824e-02  1.0844230808995885e-01  1.2874957517851174e-01  1.5037139429291357e-01  1.7335397874693859e-01  1.9772410754845929e-01  2.2348539989658861e-01  2.5061568927502637e-01  2.7906751273269198e-01  3.0877146238188452e-01  3.3964162184097707e-01  3.7158192458633083e-01  4.0449220776646694e-01  4.3827311550887316e-01  4.7282953189460986e-01  5.0807262616241788e-01  5.4392079387790238e-01  5.8029982168830463e-01  6.1714256230122799e-01  6.5438833611969083e-01  6.9198220718262582e-01  7.2987422584816641e-01  7.6801869099609821e-01  8.0637345810719097e-01  8.4489930299725924e-01  8.8355934113029311e-01  9.2231849690862000e-01  9.6114301445076011e-01  1.0000000000000000e+00  -2.0000000000000000e+00  -1.6546282491935893e+00  -1.4146309480701080e+00  -1.2350929774380124e+00  -1.0937746098604522e+00  -9.7832536659481684e-01  -8.8129686307450628e-01  -7.9790913660052798e-01  -7.2494244387831586e-01  -6.6014233761406527e-01  -6.0187962830672237e-01  -5.4894584929667167e-01  -5.0042490437114517e-01  -4.5560960132423844e-01  -4.1394571021711957e-01  -3.7499349702163270e-01  -3.3840070113373166e-01  -3.0388322424674075e-01  -2.7121116292371805e-01  -2.4019865698005730e-01  -2.1069656313277124e-01  -1.8258732556386895e-01  -1.5578168317965527e-01  -1.3021710773933204e-01  -1.0585830525837533e-01  -8.2701526124725880e-02  -6.0789592227287956e-02  -4.0239783006466599e-02  -2.1308048387773039e-02  -4.6166582871453778e-03  1.0257699514424226e-02  2.4361910224666435e-02  3.8715767998541893e-02  5.3954750198702564e-02  7.0146818932389235e-02  8.7341599204337483e-02  1.0558503489620920e-01  1.2493559853644740e-01  1.4545161983934790e-01  1.6718190728436724e-01  1.9016137648441345e-01  2.1440869475654703e-01  2.3992403676340560e-01  2.6668779744026222e-01  2.9466105601779230e-01  3.2378782738850803e-01  3.5399868786852845e-01  3.8521510006252152e-01  4.1735371139777749e-01  4.5033006949260262e-01  4.8406146708251285e-01  5.1846887195701286e-01  5.5347805197993472e-01  5.8902007158259262e-01  6.2503134146134209e-01  6.6145337706017815e-01  6.9823238489771111e-01  7.3531876064071044e-01  7.7266655394308570e-01  8.1023293344677905e-01  8.4797767015367176e-01  8.8586264721748043e-01  9.2385139768080959e-01  9.6190866764966554e-01  1.0000000000000000e+00  -2.0000000000000000e+00  -1.6343891983295216e+00  -1.3853875309883870e+00  -1.2015396658480606e+00  -1.0581449339030546e+00  -9.4178260338351638e-01  -8.4448863821549913e-01  -7.6121515201213208e-01  -6.8859502768918568e-01  -6.2428917241492921e-01  -5.6661820349933878e-01  -5.1434325087668176e-01  -4.6652962893993227e-01  -4.2245885924272025e-01  -3.8157009777119055e-01  -3.4342010052513283e-01  -3.0765525880162742e-01  -2.7399173189959924e-01  -2.4220117814733924e-01  -2.1210048963694086e-01  -1.8354451841193833e-01  -1.5642118252991374e-01  -1.3064864148501287e-01  -1.0617447847279381e-01  -8.2977114339902888e-02  -6.1071870044578015e-02  -4.0538965647325939e-02  -2.1648993127689892e-02  -5.0849324510868809e-03  9.5900087762302508e-03  2.3448002191418613e-02  3.7499746832929469e-02  5.2335052248494121e-02  6.8016449469324475e-02  8.4601587704681722e-02  1.0214021111791759e-01  1.2067847644905609e-01  1.4026343132027366e-01  1.6093939835806526e-01  1.8274323852079399e-01  2.0570092514980096e-01  2.2982525822990985e-01  2.5511425496022450e-01  2.8155040770482481e-01  3.0910108650970702e-01  3.3772010328582691e-01  3.6735020218210696e-01  3.9792607639744942e-01  4.2937746826951889e-01  4.6163198398124694e-01  4.9461739498582624e-01  5.2826334260318608e-01  5.6250247050223079e-01  5.9727107120078915e-01  6.3250935490136972e-01  6.6816144576196801e-01  7.0417519470732970e-01  7.4050187787387856e-01  7.7709583068875543e-01  8.1391405158316754e-01  8.5091579695316844e-01  8.8806217990514713e-01  9.2531577894747241e-01  9.6264025846709234e-01  1.0000000000000000e+00  -2.0000000000000000e+00  -1.6155147789004727e+00  -1.3584888812956832e+00  -1.1709626648397946e+00  -1.0258896389312415e+00  -9.0886177894394737e-01  -8.1145211288970465e-01  -7.2837789803418507e-01  -6.5614566516266726e-01  -5.9234530978375388e-01  -5.3525628384754553e-01  -4.8361541074873882e-01  -4.3647360950046349e-01  -3.9310405210188853e-01  -3.5294137523093022e-01  -3.1554035262931768e-01  -2.8054717667636803e-01  -2.4767917152115981e-01  -2.1671033138354645e-01  -1.8746104392239357e-01  -1.5979099286416995e-01  -1.3359470137606236e-01  -1.0879958940338888e-01  -8.5366809678423458e-02  -6.3295152228108456e-02  -4.2622988496051346e-02  -2.3455878114539929e-02  -6.7505842584511411e-03  7.8756379578292495e-03  2.1561043449731469e-02  3.5357363820652264e-02