<?xml version="1.0"?>
<VTKFile type="UnstructuredGrid"  version="0.1"  >
<UnstructuredGrid>
<Piece  NumberOfPoints="441" NumberOfCells="800">
<Points>
<DataArray  type="Float64"  NumberOfComponents="3"  format="ascii">0 0 0  0.05 0 0  0.1 0 0  0.15 0 0  0.2 0 0  0.25 0 0  0.3 0 0  0.35 0 0  0.4 0 0  0.45 0 0  0.5 0 0  0.55 0 0  0.6 0 0  0.65 0 0  0.7 0 0  0.75 0 0  0.8 0 0  0.85 0 0  0.9 0 0  0.95 0 0  1 0 0  0 0.05 0  0.05 0.05 0  0.1 0.05 0  0.15 0.05 0  0.2 0.05 0  0.25 0.05 0  0.3 0.05 0  0.35 0.05 0  0.4 0.05 0  0.45 0.05 0  0.5 0.05 0  0.55 0.05 0  0.6 0.05 0  0.65 0.05 0  0.7 0.05 0  0.75 0.05 0  0.8 0.05 0  0.85 0.05 0  0.9 0.05 0  0.95 0.05 0  1 0.05 0  0 0.1 0  0.05 0.1 0  0.1 0.1 0  0.15 0.1 0  0.2 0.1 0  0.25 0.1 0  0.3 0.1 0  0.35 0.1 0  0.4 0.1 0  0.45 0.1 0  0.5 0.1 0  0.55 0.1 0  0.6 0.1 0  0.65 0.1 0  0.7 0.1 0  0.75 0.1 0  0.8 0.1 0  0.85 0.1 0  0.9 0.1 0  0.95 0.1 0  1 0.1 0  0 0.15 0  0.05 0.15 0  0.1 0.15 0  0.15 0.15 0  0.2 0.15 0  0.25 0.15 0  0.3 0.15 0  0.35 0.15 0  0.4 0.15 0  0.45 0.15 0  0.5 0.15 0  0.55 0.15 0  0.6 0.15 0  0.65 0.15 0  0.7 0.15 0  0.75 0.15 0  0.8 0.15 0  0.85 0.15 0  0.9 0.15 0  0.95 0.15 0  1 0.15 0  0 0.2 0  0.05 0.2 0  0.1 0.2 0  0.15 0.2 0  0.2 0.2 0  0.25 0.2 0  0.3 0.2 0  0.35 0.2 0  0.4 0.2 0  0.45 0.2 0  0.5 0.2 0  0.55 0.2 0  0.6 0.2 0  0.65 0.2 0  0.7 0.2 0  0.75 0.2 0  0.8 0.2 0  0.85 0.2 0  0.9 0.2 0  0.95 0.2 0  1 0.2 0  0 0.25 0  0.05 0.25 0  0.1 0.25 0  0.15 0.25 0  0.2 0.25 0  0.25 0.25 0  0.3 0.25 0  0.35 0.25 0  0.4 0.25 0  0.45 0.25 0  0.5 0.25 0  0.55 0.25 0  0.6 0.25 0  0.65 0.25 0  0.7 0.25 0  0.75 0.25 0  0.8 0.25 0  0.85 0.25 0  0.9 0.25 0  0.95 0.25 0  1 0.25 0  0 0.3 0  0.05 0.3 0  0.1 0.3 0  0.15 0.3 0  0.2 0.3 0  0.25 0.3 0  0.3 0.3 0  0.35 0.3 0  0.4 0.3 0  0.45 0.3 0  0.5 0.3 0  0.55 0.3 0  0.6 0.3 0  0.65 0.3 0  0.7 0.3 0  0.75 0.3 0  0.8 0.3 0  0.85 0.3 0  0.9 0.3 0  0.95 0.3 0  1 0.3 0  0 0.35 0  0.05 0.35 0  0.1 0.35 0  0.15 0.35 0  0.2 0.35 0  0.25 0.35 0  0.3 0.35 0  0.35 0.35 0  0.4 0.35 0  0.45 0.35 0  0.5 0.35 0  0.55 0.35 0  0.6 0.35 0  0.65 0.35 0  0.7 0.35 0  0.75 0.35 0  0.8 0.35 0  0.85 0.35 0  0.9 0.35 0  0.95 0.35 0  1 0.35 0  0 0.4 0  0.05 0.4 0  0.1 0.4 0  0.15 0.4 0  0.2 0.4 0  0.25 0.4 0  0.3 0.4 0  0.35 0.4 0  0.4 0.4 0  0.45 0.4 0  0.5 0.4 0  0.55 0.4 0  0.6 0.4 0  0.65 0.4 0  0.7 0.4 0  0.75 0.4 0  0.8 0.4 0  0.85 0.4 0  0.9 0.4 0  0.95 0.4 0  1 0.4 0  0 0.45 0  0.05 0.45 0  0.1 0.45 0  0.15 0.45 0  0.2 0.45 0  0.25 0.45 0  0.3 0.45 0  0.35 0.45 0  0.4 0.45 0  0.45 0.45 0  0.5 0.45 0  0.55 0.45 0  0.6 0.45 0  0.65 0.45 0  0.7 0.45 0  0.75 0.45 0  0.8 0.45 0  0.85 0.45 0  0.9 0.45 0  0.95 0.45 0  1 0.45 0  0 0.5 0  0.05 0.5 0  0.1 0.5 0  0.15 0.5 0  0.2 0.5 0  0.25 0.5 0  0.3 0.5 0  0.35 0.5 0  0.4 0.5 0  0.45 0.5 0  0.5 0.5 0  0.55 0.5 0  0.6 0.5 0  0.65 0.5 0  0.7 0.5 0  0.75 0.5 0  0.8 0.5 0  0.85 0.5 0  0.9 0.5 0  0.95 0.5 0  1 0.5 0  0 0.55 0  0.05 0.55 0  0.1 0.55 0  0.15 0.55 0  0.2 0.55 0  0.25 0.55 0  0.3 0.55 0  0.35 0.55 0  0.4 0.55 0  0.45 0.55 0  0.5 0.55 0  0.55 0.55 0  0.6 0.55 0  0.65 0.55 0  0.7 0.55 0  0.75 0.55 0  0.8 0.55 0  0.85 0.55 0  0.9 0.55 0  0.95 0.55 0  1 0.55 0  0 0.6 0  0.05 0.6 0  0.1 0.6 0  0.15 0.6 0  0.2 0.6 0  0.25 0.6 0  0.3 0.6 0  0.35 0.6 0  0.4 0.6 0  0.45 0.6 0  0.5 0.6 0  0.55 0.6 0  0.6 0.6 0  0.65 0.6 0  0.7 0.6 0  0.75 0.6 0  0.8 0.6 0  0.85 0.6 0  0.9 0.6 0  0.95 0.6 0  1 0.6 0  0 0.65 0  0.05 0.65 0  0.1 0.65 0  0.15 0.65 0  0.2 0.65 0  0.25 0.65 0  0.3 0.65 0  0.35 0.65 0  0.4 0.65 0  0.45 0.65 0  0.5 0.65 0  0.55 0.65 0  0.6 0.65 0  0.65 0.65 0  0.7 0.65 0  0.75 0.65 0  0.8 0.65 0  0.85 0.65 0  0.9 0.65 0  0.95 0.65 0  1 0.65 0  0 0.7 0  0.05 0.7 0  0.1 0.7 0  0.15 0.7 0  0.2 0.7 0  0.25 0.7 0  0.3 0.7 0  0.35 0.7 0  0.4 0.7 0  0.45 0.7 0  0.5 0.7 0  0.55 0.7 0  0.6 0.7 0  0.65 0.7 0  0.7 0.7 0  0.75 0.7 0  0.8 0.7 0  0.85 0.7 0  0.9 0.7 0  0.95 0.7 0  1 0.7 0  0 0.75 0  0.05 0.75 0  0.1 0.75 0  0.15 0.75 0  0.2 0.75 0  0.25 0.75 0  0.3 0.75 0  0.35 0.75 0  0.4 0.75 0  0.45 0.75 0  0.5 0.75 0  0.55 0.75 0  0.6 0.75 0  0.65 0.75 0  0.7 0.75 0  0.75 0.75 0  0.8 0.75 0  0.85 0.75 0  0.9 0.75 0  0.95 0.75 0  1 0.75 0  0 0.8 0  0.05 0.8 0  0.1 0.8 0  0.15 0.8 0  0.2 0.8 0  0.25 0.8 0  0.3 0.8 0  0.35 0.8 0  0.4 0.8 0  0.45 0.8 0  0.5 0.8 0  0.55 0.8 0  0.6 0.8 0  0.65 0.8 0  0.7 0.8 0  0.75 0.8 0  0.8 0.8 0  0.85 0.8 0  0.9 0.8 0  0.95 0.8 0  1 0.8 0  0 0.85 0  0.05 0.85 0  0.1 0.85 0  0.15 0.85 0  0.2 0.85 0  0.25 0.85 0  0.3 0.85 0  0.35 0.85 0  0.4 0.85 0  0.45 0.85 0  0.5 0.85 0  0.55 0.85 0  0.6 0.85 0  0.65 0.85 0  0.7 0.85 0  0.75 0.85 0  0.8 0.85 0  0.85 0.85 0  0.9 0.85 0  0.95 0.85 0  1 0.85 0  0 0.9 0  0.05 0.9 0  0.1 0.9 0  0.15 0.9 0  0.2 0.9 0  0.25 0.9 0  0.3 0.9 0  0.35 0.9 0  0.4 0.9 0  0.45 0.9 0  0.5 0.9 0  0.55 0.9 0  0.6 0.9 0  0.65 0.9 0  0.7 0.9 0  0.75 0.9 0  0.8 0.9 0  0.85 0.9 0  0.9 0.9 0  0.95 0.9 0  1 0.9 0  0 0.95 0  0.05 0.95 0  0.1 0.95 0  0.15 0.95 0  0.2 0.95 0  0.25 0.95 0  0.3 0.95 0  0.35 0.95 0  0.4 0.95 0  0.45 0.95 0  0.5 0.95 0  0.55 0.95 0  0.6 0.95 0  0.65 0.95 0  0.7 0.95 0  0.75 0.95 0  0.8 0.95 0  0.85 0.95 0  0.9 0.95 0  0.95 0.95 0  1 0.95 0  0 1 0  0.05 1 0  0.1 1 0  0.15 1 0  0.2 1 0  0.25 1 0  0.3 1 0  0.35 1 0  0.4 1 0  0.45 1 0  0.5 1 0  0.55 1 0  0.6 1 0  0.65 1 0  0.7 1 0  0.75 1 0  0.8 1 0  0.85 1 0  0.9 1 0  0.95 1 0  1 1 0  </DataArray>
</Points>
<Cells>
[...]
<PointData  Scalars="f_6"> 
<DataArray  type="Float64"  Name="f_6"  format="ascii">-2.0000000000000000e+00  -1.8499999999999999e+00  -1.7000000000000000e+00  -1.5500000000000000e+00  -1.4000000000000001e+00  -1.2500000000000000e+00  -1.0999999999999999e+00  -9.5000000000000007e-01  -7.9999999999999993e-01  -6.5000000000000013e-01  -5.0000000000000000e-01  -3.4999999999999981e-01  -2.0000000000000007e-01  -4.9999999999999933e-02  9.9999999999999867e-02  2.5000000000000000e-01  4.0000000000000013e-01  5.4999999999999993e-01  7.0000000000000007e-01  8.4999999999999987e-01  1.0000000000000000e+00  -2.0000000000000000e+00  -2.0610731550683312e-01  4.3831619517647073e-02  1.1039399995891004e-01  1.3355778621060552e-01  1.3669367647771202e-01  1.2440654619917049e-01  9.9459209910475285e-02  6.1463477107771981e-02  -5.2908464177586463e-03  -4.9627858671413824e-02  -2.5044312669736685e-02  4.0366403309674989e-02  1.2249466049973111e-01  2.2080605072576884e-01  3.3533160496967795e-01  4.6171488249900106e-01  5.9341167247436288e-01  7.2780105802884842e-01  8.6359383880141083e-01  1.0000000000000000e+00  -2.0000000000000000e+00  8.8105784272543369e-02  2.2529312629411888e-01  2.4148642733260473e-01  2.3987285428501187e-01  2.2989187027445118e-01  2.0821138616436230e-01  1.7687393615175487e-01  1.5043663901808563e-01  1.2714632708401200e-01  1.1125344215362236e-01  1.1875289073686603e-01  1.5945648512498237e-01  2.2581466907531561e-01  3.1013394903062991e-01  4.0880548665394184e-01  5.1811625255196292e-01  6.3413074936960201e-01  7.5419872083961959e-01  8.7657429717679503e-01  1.0000000000000000e+00  -2.0000000000000000e+00  1.7491680034414733e-01  2.5508598825522610e-01  2.5975892458247246e-01  2.5592515802545446e-01  2.4801028205480966e-01  2.3705592004416493e-01  2.2182144796347139e-01  2.0523530491872885e-01  1.9507408055432710e-01  1.9592399956903342e-01  2.1385305321364470e-01  2.5289197737807301e-01  3.1117358164591924e-01  3.8510958966749370e-01  4.7164014006349642e-01  5.6781389168530649e-01  6.7079635161246376e-01  7.7828877878323299e-01  8.8850462906615035e-01  1.0000000000000000e+00  -2.0000000000000000e+00  2.1411303049890090e-01  2.6415572036628487e-01  2.6794889041546344e-01  2.6706799427059508e-01  2.6378221848955347e-01  2.5871162981310125e-01  2.5331112793686850e-01  2.4978705466904236e-01  2.5199069064553414e-01  2.6351542235453956e-01  2.8784334517060639e-01  3.2708478952774600e-01  3.8087809046279436e-01  4.4749068792992924e-01  5.2483159224724407e-01  6.1070282251330255e-01  7.0295198661171387e-01  7.9965541361469794e-01  8.9915544030457339e-01  1.0000000000000000e+00  -2.0000000000000000e+00  2.3584433045469452e-01  2.6897980542579686e-01  2.7463267414581333e-01  2.7700576360795415e-01  2.7846007517273508e-01  2.8011359713200729e-01  2.8292437930185921e-01  2.8861109517503797e-01  2.9958620500422783e-01  3.1830365403298433e-01  3.4692011558649505e-01  3.8672574509951041e-01  4.3776330274758291e-01  4.9914347934218528e-01  5.6949271848224792e-01  6.4721381950894552e-01  7.3065335870639170e-01  8.1822544875927161e-01  9.0846171853744584e-01  1.0000000000000000e+00  -2.0000000000000000e+00  2.4834166667240445e-01  2.7211205169158914e-01  2.8063579214222134e-01  2.8653300179871566e-01  2.9293872146142536e-01  3.0035830424033350e-01  3.0966169696352314e-01  3.2214674172502250e-01  3.3943938016335506e-01  3.6319287318667476e-01  3.9480771804287951e-01  4.3513477253621796e-01  4.8430589608584151e-01  5.4182720820898111e-01  6.0678198283061713e-01  6.7800637833384036e-01  7.5422217994563601e-01  8.3413130417855130e-01  9.1646598508593902e-01  1.0000000000000000e+00  -2.0000000000000000e+00  2.5287368946827626e-01  2.7443111796889197e-01  2.8574942577488033e-01  2.9555172998326196e-01  3.0640350463391725e-01  3.1871920140437837e-01  3.3321736258687745e-01  3.5087479459817389e-01  3.7283170073749516e-01  4.0022074050748019e-01  4.3398311086213037e-01  4.7469973091664042e-01  5.2249830085058413e-01  5.7707747457728054e-01  6.3780162629739923e-01  7.0380753105016303e-01  7.7409767856376066e-01  8.4761160292335913e-01  9.2327091762775915e-01  1.0000000000000000e+00  -2.0000000000000000e+00  2.5152514996681447e-01  2.7608148137590932e-01  2.8977985165495818e-01  3.0352098772553482e-01  3.1840436568660330e-01  3.3489763415638552e-01  3.5361375738143469e-01  3.7530337334330005e-01  4.0079188768097157e-01  4.3087527724362079e-01  4.6620425398152093e-01  5.0718273941762937e-01  5.5391010182257416e-01  6.0618276295215823e-01  6.6353951673153599e-01  7.2532444100565197e-01  7.9074940033588481e-01  8.5894651132336541e-01  9.2900608250173822e-01  1.0000000000000000e+00  -2.0000000000000000e+00  2.4601636675683880e-01  2.7663387794520405e-01  2.9308249474292314e-01  3.1034800357731579e-01  3.2879533623057533e-01  3.4885321215312554e-01  3.7103665943917552e-01  3.9593305371262028e-01  4.2415719939947033e-01  4.5628422680451053e-01  4.9277588840270281e-01  5.3391687094978202e-01  5.7977660406992493e-01  6.3020395867724188e-01  6.8484923667093456e-01  7.4320131590502403e-01  8.0462897045076132e-01  8.6841895953247950e-01  9.3380690105582898e-01  1.0000000000000000e+00  -2.0000000000000000e+00  2.3887451010403130e-01  2.7603027174359540e-01  2.9556824579421437e-01  3.1599319561023004e-01  3.3757576350525692e-01  3.6068321878636572e-01  3.8574661450952169e-01  4.1323498266853526e-01  4.4361962939977895e-01  4.7732854217224852e-01  5.1469820187499793e-01  5.5593225190887119e-01  6.0107548483010131e-01  6.5000723101595048e-01  7.0245215536993655e-01  7.5800261549274950e-01  8.1614620602965759e-01  8.7629345529996217e-01  9.3780256218909808e-01  1.0000000000000000e+00  -2.0000000000000000e+00  2.3112358052012238e-01  2.7460285549239233e-01  2.9716702108010873e-01  3.2048076956413313e-01  3.4483130339385665e-01  3.7055728497755891e-01  3.9803159714401060e-01  4.2764063305222039e-01  4.5975779335886197e-01  4.9471211060970682e-01  5.3275612501616909e-01  5.7403844998060383e-01  6.1858585232565844e-01  6.6629732518652240e-01  7.1694953830011243e-01  7.7021078466638015e-01  8.2565978287515840e-01  8.8280609344861394e-01  9.4110989240060161e-01  1.0000000000000000e+00  -2.0000000000000000e+00  2.2336500846834725e-01  2.7265258240589196e-01  2.9801621346969487e-01  3.2393155817233749e-01  3.5071139552847713e-01  3.7868302058600245e-01  4.0818185603674123e-01  4.3953815903747351e-01  4.7305880037374143e-01  5.0900598189154789e-01  5.4757573759936784e-01  5.8887957067171603e-01  6.3293214930540631e-01  6.7964667910436838e-01  7.2883788797761084e-01  7.8023120199750018e-01  8.3347604735598224e-01  8.8816124321873446e-01  9.4383091396469387e-01  1.0000000000000000e+00  -2.0000000000000000e+00  2.1602369157533774e-01  2.7045583703591181e-01  2.9831369222044124e-01  3.2651785412704487e-01  3.5539969996171217e-01  3.8528154580123258e-01  4.1647464737947837e-01  4.4927134668719104e-01  4.8393326720708207e-01  5.2067727898337557e-01  5.5966127281803846e-01  6.0097194580148661e-01  6.4461649511988306e-01  6.9051935394793451e-01  7.3852413250846249e-01  7.8840008799002770e-01  8.3985196133253681e-01  8.9253191810564825e-01  9.4605252023943909e-01  1.0000000000000000e+00  -2.0000000000000000e+00  2.0942304615082361e-01  2.6825998859431860e-01  2.9826486424911353e-01  3.2842646615368870e-01  3.5908800439009386e-01  3.9056881527773740e-01  4.2316384099274867e-01  4.5713931312473027e-01  4.9272564278402003e-01  5.3010859401683375e-01  5.6942012888792393e-01  6.1073044459630921e-01  6.5404253142470503e-01  6.9929010905902433e-01  7.4633920011827659e-01  7.9499305612161164e-01  8.4499979187848906e-01  8.9606194763188340e-01  9.4784724888741412e-01  1.0000000000000000e+00  -2.0000000000000000e+00  2.0382457278063992e-01  2.6627932532452631e-01  2.9805931002800523e-01  3.2983514184850271e-01  3.6195703616723723e-01  3.9474186992687466e-01  4.2847258818904876e-01  4.6339642203496123e-01  4.9972139678743399e-01  5.3761132541201584e-01  5.7718020412051430e-01  6.1848717227112093e-01  6.6153307692360364e-01  7.0625935074518198e-01  7.5254950278400823e-01  8.0023314449965333e-01  8.4909220242792460e-01  8.9886883165598264e-01  9.4927452767833398e-01  1.0000000000000000e+00  -2.0000000000000000e+00  1.9944057630823192e-01  2.6468856371821109e-01  2.9785790868987833e-01  3.3089775504507996e-01  3.6416312850347748e-01  3.9796904007347522e-01  4.3258821980161000e-01  4.6825239003863162e-01  5.0515219691873881e-01  5.4343510672328166e-01  5.8320218991099648e-01  6.2450496344405670e-01  6.6734325325340671e-01  7.1166471421409194e-01  7.5736631577292124e-01  8.0429781666506917e-01  8.5226704167757339e-01  9.0104664888578856e-01  9.5038203016993905e-01  1.0000000000000000e+00  -2.0000000000000000e+00  1.9635597357243847e-01  2.6360976206923964e-01  2.9778600596821719e-01  3.3173484113846147e-01  3.6582868272811708e-01  4.0038294206193897e-01  4.3565886090528450e-01  4.7187272139921671e-01  5.0919989412560795e-01  5.4777471465137573e-01  5.8768848535613316e-01  6.2898723834070314e-01  6.7167025843187467e-01  7.1568993708485795e-01  7.6095322942851484e-01  8.0732476471012904e-01  8.5463149873151112e-01  9.0266869203965927e-01  9.5120694411563400e-01  1.0000000000000000e+00  -2.0000000000000000e+00  1.9417939363456202e-01  2.6312480545037809e-01  2.9794151197528923e-01  3.3242692081243164e-01  3.6703381920859024e-01  4.0207518454087871e-01  4.3779156035837219e-01  4.7437974052734283e-01  5.1199994353310030e-01  5.5077537240048091e-01  5.9078979852145697e-01  6.3208524613074846e-01  6.7466060504853065e-01  7.1847154626495091e-01  7.6343190014615103e-01  8.0941651401542136e-01  8.5626549649868300e-01  9.0378967642570407e-01  9.5177705425293846e-01  1.0000000000000000e+00  -2.0000000000000000e+00  1.9144731977412918e-01  2.6354219607756540e-01  2.9842831567013001e-01  3.3299751092738589e-01  3.6780448875293326e-01  4.0309241653461347e-01  4.3905245545998306e-01  4.7585473681868229e-01  5.1364476707896967e-01  5.5253703289599099e-01  5.9261009019846478e-01  6.3390334261230363e-01  6.7641536936654900e-01  7.2010374278026423e-01  7.6488631087571746e-01  8.1064389470672227e-01  8.5722429682209589e-01  9.0444746291153533e-01  9.5211159647041588e-01  1.0000000000000000e+00  -2.0000000000000000e+00  1.9070731930369969e-01  2.6674122498680947e-01  2.9923204370027950e-01  3.3333031847404865e-01  3.6809420834114354e-01  4.0343753738465876e-01  4.3947110812826462e-01  4.7634198420843366e-01  5.1418735506810542e-01  5.5311790190604881e-01  5.9321018676410786e-01  6.3450266475345318e-01  6.7699378702509749e-01  7.2064174461383967e-01  7.6536570586973240e-01  8.1104845711365503e-01  8.5754033317144340e-01  9.0466428192792592e-01  9.5222186871718961e-01  1.0000000000000000e+00  </DataArray> 
</PointData> 
</Piece>
</UnstructuredGrid>
</VTKFile>