<?xml version="1.0"?>
<VTKFile type="UnstructuredGrid"  version="0.1"  >
<UnstructuredGrid>
<Piece  NumberOfPoints="4225" NumberOfCells="8192">
<Points>
<DataArray  type="Float64"  NumberOfComponents="3"  format="ascii">0 0 0  0.015625 0 0  0.03125 0 0  0.046875 0 0  0.0625 0 0  0.078125 0 0  0.09375 0 0  0.109375 0 0  0.125 0 0  0.140625 0 0  0.15625 0 0  0.171875 0 0  0.1875 0 0  0.203125 0 0  0.21875 0 0  0.234375 0 0  0.25 0 0  0.265625 0 0  0.28125 0 0  0.296875 0 0  0.3125 0 0  0.328125 0 0  0.34375 0 0  0.359375 0 0  0.375 0 0  0.390625 0 0  0.40625 0 0  0.421875 0 0  0.4375 0 0  0.453125 0 0  0.46875 0 0  0.484375 0 0  0.5 0 0  0.515625 0 0  0.53125 0 0  0.546875 0 0  0.5625 0 0  0.578125 0 0  0.59375 0 0  0.609375 0 0  0.625 0 0  0.640625 0 0  0.65625 0 0  0.671875 0 0  0.6875 0 0  0.703125 0 0  0.71875 0 0  0.734375 0 0  0.75 0 0  0.765625 0 0  0.78125 0 0  0.796875 0 0  0.8125 0 0  0.828125 0 0  0.84375 0 0  0.859375 0 0  0.875 0 0  0.890625 0 0  0.90625 0 0  0.921875 0 0  0.9375 0 0  0.953125 0 0  0.96875 0 0  0.984375 0 0  1 0 0  0 0.015625 0  0.015625 0.015625 0  0.03125 0.015625 0  0.046875 0.015625 0  0.0625 0.015625 0  0.078125 0.015625 0  0.09375 0.015625 0  0.109375 0.015625 0  0.125 0.015625 0  0.140625 0.015625 0  0.15625 0.015625 0  0.171875 0.015625 0  0.1875 0.015625 0  0.203125 0.015625 0  0.21875 0.015625 0  0.234375 0.015625 0  0.25 0.015625 0  0.265625 0.015625 0  0.28125 0.015625 0  0.296875 0.015625 0  0.3125 0.015625 0  0.328125 0.015625 0  0.34375 0.015625 0  0.359375 0.015625 0  0.375 0.015625 0  0.390625 0.015625 0  0.40625 0.015625 0  0.421875 0.015625 0  0.4375 0.015625 0  0.453125 0.015625 0  0.46875 0.015625 0  0.484375 0.015625 0  0.5 0.015625 0  0.515625 0.015625 0  0.53125 0.015625 0  0.546875 0.015625 0  0.5625 0.015625 0  0.578125 0.015625 0  0.59375 0.015625 0  0.609375 0.015625 0  0.625 0.015625 0  0.640625 0.015625 0  0.65625 0.015625 0  0.671875 0.015625 0  0.6875 0.015625 0  0.703125 0.015625 0  0.71875 0.015625 0  0.734375 0.015625 0  0.75 0.015625 0  0.765625 0.015625 0  0.78125 0.015625 0  0.796875 0.015625 0  0.8125 0.015625 0  0.828125 0.015625 0  0.84375 0.015625 0  0.859375 0.015625 0  0.875 0.015625 0  0.890625 0.015625 0  0.90625 0.015625 0  0.921875 0.015625 0  0.9375 0.015625 0  0.953125 0.015625 0  0.96875 0.015625 0  0.984375 0.015625 0  1 0.015625 0  0 0.03125 0  0.015625 0.03125 0  0.03125 0.03125 0  0.046875 0.03125 0  0.0625 0.03125 0  0.078125 0.03125 0  0.09375 0.03125 0  0.109375 0.03125 0  0.125 0.03125 0  0.140625 0.03125 0  0.15625 0.03125 0  0.171875 0.03125 0  0.1875 0.03125 0  0.203125 0.03125 0  0.21875 0.03125 0  0.234375 0.03125 0  0.25 0.03125 0  0.265625 0.03125 0  0.28125 0.03125 0  0.296875 0.03125 0  0.3125 0.03125 0  0.328125 0.03125 0  0.34375 0.03125 0  0.359375 0.03125 0  0.375 0.03125 0  0.390625 0.03125 0  0.40625 0.03125 0  0.421875 0.03125 0  0.4375 0.03125 0  0.453125 0.03125 0  0.46875 0.03125 0  0.484375 0.03125 0  0.5 0.03125 0  0.515625 0.03125 0  0.53125 0.03125 0  0.546875 0.03125 0  0.5625 0.03125 0  0.578125 0.03125 0  0.59375 0.03125 0  0.609375 0.03125 0  0.625 0.03125 0  0.640625 0.03125 0  0.65625 0.03125 0  0.671875 0.03125 0  0.6875 0.03125 0  0.703125 0.03125 0  0.71875 0.03125 0  0.734375 0.03125 0  0.75 0.03125 0  0.765625 0.03125 0  0.78125 0.03125 0  0.796875 0.03125 0  0.8125 0.03125 0  0.828125 0.03125 0  0.84375 0.03125 0  0.859375 0.03125 0  0.875 0.03125 0  0.890625 0.03125 0  0.90625 0.03125 0  0.921875 0.03125 0  0.9375 0.03125 0  0.953125 0.03125 0  0.96875 0.03125 0  0.984375 0.03125 0  1 0.03125 0  0 0.046875 0  0.015625 0.046875 0  0.03125 0.046875 0  0.046875 0.046875 0  0.0625 0.046875 0  0.078125 0.046875 0  0.09375 0.046875 0  0.109375 0.046875 0  0.125 0.046875 0  0.140625 0.046875 0  0.15625 0.046875 0  0.171875 0.046875 0  0.1875 0.046875 0  0.203125 0.046875 0  0.21875 0.046875 0  0.234375 0.046875 0  0.25 0.046875 0  0.265625 0.046875 0  0.28125 0.046875 0  0.296875 0.046875 0  0.3125 0.046875 0  0.328125 0.046875 0  0.34375 0.046875 0  0.359375 0.046875 0  0.375 0.046875 0  0.390625 0.046875 0  0.40625 0.046875 0  0.421875 0.046875 0  0.4375 0.046875 0  0.453125 0.046875 0  0.46875 0.046875 0  0.484375 0.046875 0  0.5 0.046875 0  0.515625 0.046875 0  0.53125 0.046875 0  0.546875 0.046875 0  0.5625 0.046875 0  0.578125 0.046875 0  0.59375 0.046875 0  0.609375 0.046875 0  0.625 0.046875 0  0.640625 0.046875 0  0.65625 0.046875 0  0.671875 0.046875 0  0.6875 0.046875 0  0.703125 0.046875 0  0.71875 0.046875 0  0.734375 0.046875 0  0.75 0.046875 0  0.765625 0.046875 0  0.78125 0.046875 0  0.796875 0.046875 0  0.8125 0.046875 0  0.828125 0.046875 0  0.84375 0.046875 0  0.859375 0.046875 0  0.875 0.046875 0  0.890625 0.046875 0  0.90625 0.046875 0  0.921875 0.046875 0  0.9375 0.046875 0  0.953125 0.046875 0  0.96875 0.046875 0  0.984375 0.046875 0  1 0.046875 0  0 0.0625 0  0.015625 0.0625 0  0.03125 0.0625 0  0.046875 0.0625 0  0.0625 0.0625 0  0.078125 0.0625 0  0.09375 0.0625 0  0.109375 0.0625 0  0.125 0.0625 0  0.140625 0.0625 0  0.15625 0.0625 0  0.171875 0.0625 0  0.1875 0.0625 0  0.203125 0.0625 0  0.21875 0.0625 0  0.234375 0.0625 0  0.25 0.0625 0  0.265625 0.0625 0  0.28125 0.0625 0  0.296875 0.0625 0  0.3125 0.0625 0  0.328125 0.0625 0  0.34375 0.0625 0  0.359375 0.0625 0  0.375 0.0625 0  0.390625 0.0625 0  0.40625 0.0625 0  0.421875 0.0625 0  0.4375 0.0625 0  0.453125 0.0625 0  0.46875 0.0625 0  0.484375 0.0625 0  0.5 0.0625 0  0.515625 0.0625 0  0.53125 0.0625 0  0.546875 0.0625 0  0.5625 0.0625 0  0.578125 0.0625 0  0.59375 0.0625 0  0.609375 0.0625 0  0.625 0.0625 0  0.640625 0.0625 0  0.65625 0.0625 0  0.671875 0.0625 0  0.6875 0.0625 0  0.703125 0.0625 0  0.71875 0.0625 0  0.734375 0.0625 0  0.75 0.0625 0  0.765625 0.0625 0  0.78125 0.0625 0  0.796875 0.0625 0  0.8125 0.0625 0  0.828125 0.0625 0  0.84375 0.0625 0  0.859375 0.0625 0  0.875 0.0625 0  0.890625 0.0625 0  0.90625 0.0625 0  0.921875 0.0625 0  0.9375 0.0625 0  0.953125 0.0625 0  0.96875 0.0625 0  0.984375 0.0625 0  1 0.0625 0  0 0.078125 0  0.015625 0.078125 0  0.03125 0.078125 0  0.046875 0.078125 0  0.0625 0.078125 0  0.078125 0.078125 0  0.09375 0.078125 0  0.109375 0.078125 0  0.125 0.078125 0  0.140625 0.078125 0  0.15625 0.078125 0  0.171875 0.078125 0  0.1875 0.078125 0  0.203125 0.078125 0  0.21875 0.078125 0  0.234375 0.078125 0  0.25 0.078125 0  0.265625 0.078125 0  0.28125 0.078125 0  0.296875 0.078125 0  0.3125 0.078125 0  0.328125 0.078125 0  0.34375 0.078125 0  0.359375 0.078125 0  0.375 0.078125 0  0.390625 0.078125 0  0.40625 0.078125 0  0.421875 0.078125 0  0.4375 0.078125 0  0.453125 0.078125 0  0.46875 0.078125 0  0.484375 0.078125 0  0.5 0.078125 0  0.515625 0.078125 0  0.53125 0.078125 0  0.546875 0.078125 0  0.5625 0.078125 0  0.578125 0.078125 0  0.59375 0.078125 0  0.609375 0.078125 0  0.625 0.078125 0  0.640625 0.078125 0  0.65625 0.078125 0  0.671875 0.078125 0  0.6875 0.078125 0  0.703125 0.078125 0  0.71875 0.078125 0  0.734375 0.078125 0  0.75 0.078125 0  0.765625 0.078125 0  0.78125 0.078125 0  0.796875 0.078125 0  0.8125 0.078125 0  0.828125 0.078125 0  0.84375 0.078125 0  0.859375 0.078125 0  0.875 0.078125 0  0.890625 0.078125 0  0.90625 0.078125 0  0.921875 0.078125 0  0.9375 0.078125 0  0.953125 0.078125 0  0.96875 0.078125 0  0.984375 0.078125 0  1 0.078125 0  0 0.09375 0  0.015625 0.09375 0  0.03125 0.09375 0  0.046875 0.09375 0  0.0625 0.09375 0  0.078125 0.09375 0  0.09375 0.09375 0  0.109375 0.09375 0  0.125 0.09375 0  0.140625 0.09375 0  0.15625 0.09375 0  0.171875 0.09375 0  0.1875 0.09375 0  0.203125 0.09375 0  0.21875 0.09375 0  0.234375 0.09375 0  0.25 0.09375 0  0.265625 0.09375 0  0.28125 0.09375 0  0.296875 0.09375 0  0.3125 0.09375 0  0.328125 0.09375 0  0.34375 0.09375 0  0.359375 0.09375 0  0.375 0.09375 0  0.390625 0.09375 0  0.40625 0.09375 0  0.421875 0.09375 0  0.4375 0.09375 0  0.453125 0.09375 0  0.46875 0.09375 0  0.484375 0.09375 0  0.5 0.09375 0  0.515625 0.09375 0  0.53125 0.09375 0  0.546875 0.09375 0  0.5625 0.09375 0  0.578125 0.09375 0  0.59375 0.09375 0  0.609375 0.09375 0  0.625 0.09375 0  0.640625 0.09375 0  0.65625 0.09375 0  0.671875 0.09375 0  0.6875 0.09375 0  0.703125 0.09375 0  0.71875 0.09375 0  0.734375 0.09375 0  0.75 0.09375 0  0.765625 0.09375 0  0.78125 0.09375 0  0.796875 0.09375 0  0.8125 0.09375 0  0.828125 0.09375 0  0.84375 0.09375 0  0.859375 0.09375 0  0.875 0.09375 0  0.890625 0.09375 0  0.90625 0.09375 0  0.921875 0.09375 0  0.9375 0.09375 0  0.953125 0.09375 0  0.96875 0.09375 0  0.984375 0.09375 0  1 0.09375 0  0 0.109375 0  0.015625 0.109375 0  0.03125 0.109375 0  0.046875 0.109375 0  0.0625 0.109375 0  0.078125 0.109375 0  0.09375 0.109375 0  0.109375 0.109375 0  0.125 0.109375 0  0.140625 0.109375 0  0.15625 0.109375 0  0.171875 0.109375 0  0.1875 0.109375 0  0.203125 0.109375 0  0.21875 0.109375 0  0.234375 0.109375 0  0.25 0.109375 0  0.265625 0.109375 0  0.28125 0.109375 0  0.296875 0.109375 0  0.3125 0.109375 0  0.328125 0.109375 0  0.34375 0.109375 0  0.359375 0.109375 0  0.375 0.109375 0  0.390625 0.109375 0  0.40625 0.109375 0  0.421875 0.109375 0  0.4375 0.109375 0  0.453125 0.109375 0  0.46875 0.109375 0  0.484375 0.109375 0  0.5 0.109375 0  0.515625 0.109375 0  0.53125 0.109375 0  0.546875 0.109375 0  0.5625 0.109375 0  0.578125 0.109375 0  0.59375 0.109375 0  0.609375 0.109375 0  0.625 0.109375 0  0.640625 0.109375 0  0.65625 0.109375 0  0.671875 0.109375 0  0.6875 0.109375 0  0.703125 0.109375 0  0.71875 0.109375 0  0.734375 0.109375 0  0.75 0.109375 0  0.765625 0.109375 0  0.78125 0.109375 0  0.796875 0.109375 0  0.8125 0.109375 0  0.828125 0.109375 0  0.84375 0.109375 0  0.859375 0.109375 0  0.875 0.109375 0  0.890625 0.109375 0  0.90625 0.109375 0  0.921875 0.109375 0  0.9375 0.109375 0  0.953125 0.109375 0  0.96875 0.109375 0  0.984375 0.109375 0  1 0.109375 0  0 0.125 0  0.015625 0.125 0  0.03125 0.125 0  0.046875 0.125 0  0.0625 0.125 0  0.078125 0.125 0  0.09375 0.125 0  0.109375 0.125 0  0.125 0.12
[...]
<PointData  Scalars="f_6"> 
<DataArray  type="Float64"  Name="f_6"  format="ascii">-2.0000000000000000e+00  -1.9531250000000000e+00  -1.9062500000000000e+00  -1.8593750000000000e+00  -1.8125000000000000e+00  -1.7656250000000000e+00  -1.7187500000000000e+00  -1.6718750000000000e+00  -1.6250000000000000e+00  -1.5781250000000000e+00  -1.5312500000000000e+00  -1.4843750000000000e+00  -1.4375000000000000e+00  -1.3906250000000000e+00  -1.3437500000000000e+00  -1.2968750000000000e+00  -1.2500000000000000e+00  -1.2031250000000000e+00  -1.1562500000000000e+00  -1.1093750000000000e+00  -1.0625000000000000e+00  -1.0156250000000000e+00  -9.6875000000000000e-01  -9.2187500000000000e-01  -8.7500000000000000e-01  -8.2812500000000000e-01  -7.8125000000000000e-01  -7.3437500000000000e-01  -6.8750000000000000e-01  -6.4062500000000000e-01  -5.9375000000000000e-01  -5.4687500000000000e-01  -5.0000000000000000e-01  -4.5312500000000000e-01  -4.0625000000000000e-01  -3.5937500000000000e-01  -3.1250000000000000e-01  -2.6562500000000000e-01  -2.1875000000000003e-01  -1.7187500000000000e-01  -1.2500000000000000e-01  -7.8125000000000014e-02  -3.1250000000000000e-02  1.5625000000000000e-02  6.2500000000000000e-02  1.0937500000000000e-01  1.5625000000000000e-01  2.0312500000000000e-01  2.5000000000000000e-01  2.9687500000000000e-01  3.4375000000000000e-01  3.9062500000000000e-01  4.3750000000000000e-01  4.8437500000000000e-01  5.3125000000000000e-01  5.7812500000000000e-01  6.2500000000000000e-01  6.7187500000000000e-01  7.1875000000000000e-01  7.6562500000000000e-01  8.1250000000000000e-01  8.5937500000000000e-01  9.0625000000000000e-01  9.5312500000000000e-01  1.0000000000000000e+00  -2.0000000000000000e+00  -1.9128156826349785e+00  -1.8323278068312938e+00  -1.7571233271222171e+00  -1.6862903167381382e+00  -1.6191662960520141e+00  -1.5552368677884183e+00  -1.4940868008069454e+00  -1.4353726305691374e+00  -1.3788054884606162e+00  -1.3241394373008843e+00  -1.2711630816802493e+00  -1.2196932837469794e+00  -1.1695703162006417e+00  -1.1206540422526927e+00  -1.0728208554371619e+00  -1.0259611968061007e+00  -9.7997751996501026e-01  -9.3478260914563971e-01  -8.9029817941497003e-01  -8.4645370544301113e-01  -8.0318543864135716e-01  -7.6043558356087848e-01  -7.1815161387966642e-01  -6.7628571570259322e-01  -6.3479434996941886e-01  -5.9363792645625368e-01  -5.5278058574678723e-01  -5.1219011390620395e-01  -4.7183810274451871e-01  -4.3170062114771413e-01  -3.9175969039877984e-01  -3.5200507366375339e-01  -3.1243356668550026e-01  -2.7304376923482426e-01  -2.3383857246736470e-01  -1.9487324217304422e-01  -1.5626038134103715e-01  -1.1792678177498400e-01  -7.9626679561085614e-02  -4.4987594956569309e-02  -1.2256833999806854e-02  2.1491321981658054e-02  5.7158498640138590e-02  9.5939297290201717e-02  1.3783836250989417e-01  1.8115446492973497e-01  2.2523509031923281e-01  2.6978675194942625e-01  3.1465721437513655e-01  3.5975785418192385e-01  4.0503230287091607e-01  4.5044221003393209e-01  4.9596008619311299e-01  5.4156538689078448e-01  5.8724221710796853e-01  6.3297790747674743e-01  6.7876208879528488e-01  7.2458606580699825e-01  7.7044237806899807e-01  8.1632448156239767e-01  8.6222651007732543e-01  9.0814309003095628e-01  9.5406919106286503e-01  1.0000000000000000e+00  -2.0000000000000000e+00  -1.8756331011071050e+00  -1.7661169853412102e+00  -1.6680805760041251e+00  -1.5791965724508294e+00  -1.4977788595979444e+00  -1.4225582126359730e+00  -1.3525508484183104e+00  -1.2869767695410719e+00  -1.2252063254189500e+00  -1.1667237009557225e+00  -1.1111010894207816e+00  -1.0579799041416587e+00  -1.0070567948545395e+00  -9.5807304133067606e-01  -9.1080637972263701e-01  -8.6506461777492605e-01  -8.2068058886626405e-01  -7.7750812359873389e-01  -7.3541880560535511e-01  -6.9429934018335249e-01  -6.5404940969441383e-01  -6.1457992457601496e-01  -5.7581160699878398e-01  -5.3767386685522467e-01  -5.0010394533090152e-01  -4.6304630758006393e-01  -4.2645226874698089e-01  -3.9027986959625344e-01  -3.5449416343983747e-01  -3.1906846255830673e-01  -2.8398769127810553e-01  -2.4925459378981854e-01  -2.1489322834235802e-01  -1.8093559101961201e-01  -1.4739403582986366e-01  -1.1441170650548299e-01  -8.2509099942957242e-02  -5.1905811384836943e-02  -2.3832955424834001e-02  2.3421861009108947e-03  2.9205055798537678e-02  5.8261314140523074e-02  9.0390914929987839e-02  1.2626032801077405e-01  1.6488468781964011e-01  2.0529440688981287e-01  2.4687414439777006e-01  2.8925470310333556e-01  3.3220925136919638e-01  3.7559189948164273e-01  4.1930414726780840e-01  4.6327645107169912e-01  5.0745774784773567e-01  5.5180924426205658e-01  5.9630057406434223e-01  6.4090732400373640e-01  6.8560938189739318e-01  7.3038979636371038e-01  7.7523396490659591e-01  8.2012903810326776e-01  8.6506346871594764e-01  9.1002665898363400e-01  9.5500867422050351e-01  1.0000000000000000e+00  -2.0000000000000000e+00  -1.8409859088351666e+00  -1.7062914466104573e+00  -1.5896901960229366e+00  -1.4869974857842700e+00  -1.3952785152702938e+00  -1.3124001443928206e+00  -1.2367653724006960e+00  -1.1671489499868408e+00  -1.1025914310023832e+00  -1.0423284295349744e+00  -9.8574191430730307e-01  -9.3232577841303610e-01  -8.8166093977761684e-01  -8.3339697555520975e-01  -7.8723834160410189e-01  -7.4293387647859543e-01  -7.0026870191313106e-01  -6.5905790107157025e-01  -6.1914153588713905e-01  -5.8038068827081102e-01  -5.4265429738844662e-01  -5.0585663015023663e-01  -4.6989527346640292e-01  -4.3468957932439595e-01  -4.0016952622071900e-01  -3.6627497541029103e-01  -3.3295529155529868e-01  -3.0016928890389599e-01  -2.6788557446464545e-01  -2.3608392985323970e-01  -2.0476024107228230e-01  -1.7394128810952453e-01  -1.4370766453642178e-01  -1.1418725086875381e-01  -8.5371056624705885e-02  -5.7262863662826048e-02  -3.2072845268232668e-02  -9.0031080029284675e-03  1.3382239547014311e-02  3.5962825603298935e-02  6.0706269613801336e-02  8.8810665975882039e-02  1.1988351892851565e-01  1.5382641200326666e-01  1.9014565386807947e-01  2.2826433041210645e-01  2.6771237727869901e-01  3.0814866469694951e-01  3.4933318851667111e-01  3.9109634510764224e-01  4.3331593564697590e-01  4.7590169913732039e-01  5.1878520986407439e-01  5.6191326824536392e-01  6.0524351088360739e-01  6.4874143257646277e-01  6.9237831842684150e-01  7.3612977284385384e-01  7.7997464709040787e-01  8.2389423722812982e-01  8.6787166769956392e-01  9.1189140296712923e-01  9.5593884683551489e-01  1.0000000000000000e+00  -2.0000000000000000e+00  -1.8085648369248752e+00  -1.6519144385691069e+00  -1.5200891218392707e+00  -1.4067036075431019e+00  -1.3074509079027345e+00  -1.2193046549979594e+00  -1.1400659805308611e+00  -1.0680923328612917e+00  -1.0021278754436358e+00  -9.4119334909379126e-01  -8.8451219504274681e-01  -8.3145959173840067e-01  -7.8152643102504771e-01  -7.3429330694482287e-01  -6.8941138151499781e-01  -6.4658807840004129e-01  -6.0557623357491452e-01  -5.6616576635399229e-01  -5.2817721890034219e-01  -4.9145670349309095e-01  -4.5587192899746709e-01  -4.2130907382604316e-01  -3.8767034804864176e-01  -3.5487215261512534e-01  -3.2284380071262342e-01  -2.9152680105078232e-01  -2.6087468395427033e-01  -2.3085325928576803e-01  -2.0144109639539678e-01  -1.7263020760047093e-01  -1.4442922442760436e-01  -1.1688688131367836e-01  -9.0165606536799794e-02  -6.4690854151517041e-02  -4.0547814161269694e-02  -1.8576547430899943e-02  1.4931489729019484e-03  2.1307547137684478e-02  4.1858218671308643e-02  6.4016469185176963e-02  8.8846531077486704e-02  1.1639156122068800e-01  1.4650608280492614e-01  1.7901614720569745e-01  2.1360718523730488e-01  2.4990488361183436e-01  2.8756236960796988e-01  3.2629438988909215e-01  3.6587849289289626e-01  4.0614435678527921e-01  4.4696155107513258e-01  4.8822919996653180e-01  5.2986812422587770e-01  5.7181510797171653e-01  6.1401876864826066e-01  6.5643657699166591e-01  6.9903268638965665e-01  7.4177632949445538e-01  7.8464061338305247e-01  8.2760159601927963e-01  8.7063756188704855e-01  9.1372843834980411e-01  9.5685531015442571e-01  1.0000000000000000e+00  -2.0000000000000000e+00  -1.7781739197604507e+00  -1.6022852507219669e+00  -1.4578784037206545e+00  -1.3361302803163804e+00  -1.2313119251098092e+00  -1.1395203684106958e+00  -1.0579925106517629e+00  -9.8470986483508927e-01  -9.1815895521250335e-01  -8.5717979527506893e-01  -8.0086657863880362e-01  -7.4850056908374918e-01  -6.9950353602159687e-01  -6.5340469558353542e-01  -6.0981676621193603e-01  -5.6841832155294947e-01  -5.2894058769667274e-01  -4.9115743883436180e-01  -4.5487773700001893e-01  -4.1993942009211405e-01  -3.8620491766233855e-01  -3.5355759839049661e-01  -3.2189905061990498e-01  -2.9114708744377404e-01  -2.6123446224862285e-01  -2.3210836454275727e-01  -2.0373077205150275e-01  -1.7607957103765054e-01  -1.4915000846796125e-01  -1.2295507689915938e-01  -9.7519988425645840e-02  -7.2899572529082371e-02  -4.9199400059121060e-02  -2.8126560074910077e-02  -9.0127200035219450e-03  9.1397240990808513e-03  2.6980339631659352e-02  4.5873429182071671e-02  6.6699205488192803e-02  8.9398301388613544e-02  1.1427182429028049e-01  1.4140296502445718e-01  1.7073310386480342e-01  2.0212490877729197e-01  2.3536205626360832e-01  2.7018564918995619e-01  3.0633782765225398e-01  3.4358803235855312e-01  3.8174203638054227e-01  4.2064103806544573e-01  4.6015671190174307e-01  5.0018542542779665e-01  5.4064297910118841e-01  5.8146027076736384e-01  6.2257987874605236e-01  6.6395342035228355e-01  7.0553952064566350e-01  7.4730224536125867e-01  7.8920988092806621e-01  8.3123397157888779e-01  8.7334854547954666e-01  9.1552947839061360e-01  9.5775395543238373e-01  1.0000000000000000e+00  -2.0000000000000000e+00  -1.7496697651514317e+00  -1.5568543278363751e+00  -1.4019780606829786e+00  -1.2736366184680323e+00  -1.1646805934449376e+00  -1.0703722531347419e+00  -9.8743247856902661e-01  -9.1351086118029612e-01  -8.4687353468517912e-01  -7.8621038590261061e-01  -7.3051121828980836e-01  -6.7898351751018660e-01  -6.3099626701358780e-01  -5.8604060779535405e-01  -5.4370170102734550e-01  -5.0363823098041982e-01  -4.6556723849495490e-01  -4.2925275263809276e-01  -3.9449718315166249e-01  -3.6113475878989076e-01  -3.2902651172120351e-01  -2.9805645730377878e-01  -2.6812873373282575e-01  -2.3916558063511242e-01  -2.1110618676191739e-01  -1.8390663453497949e-01  -1.5754130243683592e-01  -1.3200591326750707e-01  -1.0732217895245004e-01  -8.3542986128924607e-02  -6.0737381954857415e-02  -3.9076313873654137e-02  -1.9675039329316385e-02  -2.3664225349208372e-03  1.4334447834899573e-02  3.1281223688882982e-02  4.9071750995680431e-02  6.8506624470750024e-02  8.9666872710777321e-02  1.1260570659080395e-01  1.3743949967056454e-01  1.6421537072205669e-01  1.9289845885253842e-01  2.2338832777505874e-01  2.5553048184988025e-01  2.8913782923212855e-01  3.2401525945253684e-01  3.5997787551232446e-01  3.9686058220527465e-01  4.3452104719421802e-01  4.7283883303859742e-01  5.1171281074172326e-01  5.5105809598371536e-01  5.9080311725049817e-01  6.3088705521630173e-01  6.7125770502575299e-01  7.1186973047945590e-01  7.5268325037684836e-01  7.9366269338906648e-01  8.3477586388865832e-01  8.7599317006163657e-01  9.1728697430071948e-01  9.5863103318449561e-01  1.0000000000000000e+00  -2.0000000000000000e+00  -1.7229367443394112e+00  -1.5151754278615368e+00  -1.3515344507860592e+00  -1.2179607100094141e+00  -1.1059199629554566e+00  -1.0098942397023061e+00  -9.2613912478653948e-01  -8.5201423210509708e-01  -7.8559861762768213e-01  -7.2545814147345211e-01  -6.7049861767598251e-01  -6.1986974493371860e-01  -5.7290032208518604e-01  -5.2905340998496464e-01  -4.8789459733346530e-01  -4.4906910751384738e-01  -4.1228501650293403e-01  -3.7730079181960369e-01  -3.4391595486602705e-01  -3.1196405144161399e-01  -2.8130736711168020e-01  -2.5183299418479016e-01  -2.2344998279996767e-01  -1.9608743949142510e-01  -1.6969366459660795e-01  -1.4423687204722124e-01  -1.1970863475159181e-01  -9.6131224517516392e-02  -7.3571279077647558e-02  -5.2132060391489751e-02  -3.2055765617745278e-02  -1.4005431601253036e-02  2.2604063361205706e-03  1.7753934009847663e-02  3.3768802915865107e-02  5.1049238498247843e-02  6.9518816191429356e-02  8.9414444994470668e-02  1.1085595429336265e-01  1.3391815259326040e-01  1.5866509707911708e-01  1.8512055934066657e-01  2.1325703304823476e-01  2.4299946162052433e-01  2.7423371412872533e-01  3.0681992643614103e-01  3.4060750541344037e-01  3.7544762803293324e-01  4.1120136973401378e-01  4.4774373546755453e-01  4.8496476231670532e-01  5.2276888851678383e-01  5.6107347684145170e-01  5.9980704703461163e-01  6.3890751984290295e-01  6.7832061405497079e-01  7.1799844586955874e-01  7.5789833227761250e-01  7.9798177836269302e-01  8.3821362052504200e-01  8.7856129657762172e-01  9.1899421556613270e-01  9.5948320300487977e-01  1.0000000000000000e+00  -2.0000000000000000e+00  -1.6978757209800373e+00  -1.4768771253024924e+00  -1.3058595637688810e+00  -1.1681122832612751e+00  -1.0537733677171546e+00  -9.5660431255161071e-01  -8.7244463129573790e-01  -7.9840199723412708e-01  -7.3239720909570749e-01  -6.7289386957441955e-01  -6.1873030806229934e-01  -5.6901103395116459e-01  -5.2303435393131303e-01  -4.8024276972586205e-01  -4.4018818551405953e-01  -4.0250701687497642e-01  -3.6690209169761134e-01  -3.3312932553261315e-01  -3.0098783723365202e-01  -2.7031261013734142e-01  -2.4096909251414653e-01  -2.1284932180896013e-01  -1.8586928542633901e-01  -1.5996734960482165e-01  -1.3510386714438499e-01  -1.1126299192155061e-01  -8.8459802810499852e-02  -6.6756125361649071e-02  -4.6273885452884626e-02  -2.7347767679133682e-02  -1.0322036997475798e-02  5.2066327185740502e-03  2.0118837146460733e-02  3.5442967425215549e-02  5.1937591320465368e-02  6.9628111196813905e-02  8.8539830277318529e-02  1.0877638502234058e-01  1.3042434687494223e-01  1.5354585240975796e-01  1.7818217671197692e-01  2.0434473651325771e-01  2.3200965237921006e-01  2.6111877153007862e-01  2.9158498660835580e-01  3.2330065697026977e-01  3.5614720773215086e-01  3.9000376147195431e-01  4.2475353323029263e-01  4.6028776262528120e-01  4.9650759224388569e-01  5.3332450416725530e-01  5.7065987583069577e-01  6.0844407420359392e-01  6.4661536306572798e-01  6.8511878548166905e-01  7.2390510666619556e-01  7.6292985450135054e-01  8.0215246725905098e-01  8.4153554327119484e-01  8.8104418015767594e-01  9.2064538838130971e-01  9.6030756326889033e-01  1.0000000000000000e+00  -2.0000000000000000e+00  -1.6743984895901864e+00  -1.4416447417595284e+00  -1.2643899424246852e+00  -1.1233007046147010e+00  -1.0072572951763232e+00  -9.0936112739235375e-01  -8.2508150899592625e-01  -7.5130781028050786e-01  -6.8582710561672922e-01  -6.2701871438605616e-01  -5.7366676075678225e-01  -5.2484047148546265e-01  -4.7981512653587322e-01  -4.3801835178494331e-01  -3.9899273882212383e-01  -3.6236929672503176e-01  -3.2784828720170855e-01  -2.9518522740434466e-01  -2.6418061317770120e-01  -2.3467241126542981e-01  -2.0653069959522227e-01  -1.7965405769681322e-01  -1.5396744646100530e-01  -1.2942137669838691e-01  -1.0599230430879567e-01  -8.3685516698158532e-02  -6.2548099043898742e-02  -4.2692244046101543e-02  -2.4529997590598901e-02  -8.2493076333601395e-03  6.7041704686247091e-03  2.1197147325703276e-02  3.6085285758643414e-02  5.1961507224088432e-02  6.8910483743966897e-02  8.6985784691223922e-02  1.0623600869869028e-01  1.2672691794263094e-01  1.4851919577430761e-01  1.7165873345885227e-01  1.9617302084577490e-01  2.2206655762117736e-01  2.4931806842526907e-01  2.7788098551222423e-01  3.0768680380434971e-01  3.3865050710443140e-01  3.7067690707293971e-01  4.0366667689244062e-01  4.3752123908992135e-01  4.7214618955939197e-01  5.0745333986630092e-01  5.4336166007765596e-01  5.7979744811048217e-01  6.1669401088334042e-01  6.5399107273474688e-01  6.9163405813978196e-01  7.2957334081220382e-01  7.6776351180254310e-01  8.0616269290096532e-01  8.4473190514301078e-01  8.8343449240057748e-01  9.2223559453253967e-01  9.6110166168937183e-01  1.0000000000000000e+00  -2.0000000000000000e+00  -1.6524248503521850e+00  -1.4092082026616575e+00  -1.2266580017617985e+00  -1.0828853383504278e+00  -9.6558914355331282e-01  -8.6726942190183609e-01  -7.8306705195822335e-01  -7.0968245381495054e-01  -6.4478969798943819e-01  -5.8669860119517392e-01  -5.3414975382557861e-01  -4.8618489907985335e-01  -4.4206205833675444e-01  -4.0119829839264176e-01  -3.6313016889904298e-01  -3.2748578544042356e-01  -2.9396480910374412e-01  -2.6232393591383324e-01  -2.3236635803727398e-01  -2.0393421302755504e-01  -1.7690342456628785e-01  -1.5118063067060111e-01  -1.2670211093190353e-01  -1.0343466578863397e-01  -8.1377955275672154e-02  -6.0567088524492579e-02  -4.1090586021717390e-02  -2.3352950559091732e-02  -7.5466059311979803e-03  6.9678755329157646e-03  2.1109805438343558e-02  3.5657224265734692e-02  5.1063651338321206e-02  6.7407291968527877e-02  8.4757051740089892e-02  1.0316853512542458e-01  1.2269150188358782e-01  1.4337608227518525e-01  1.6526678482080506e-01  1.8839686480556841e-01  2.1278461559109307e-01  2.3843040470040772e-01  2.6531507818846461e-01  2.9340029828919928e-01  3.2263073599238773e-01  3.5293766057016629e-01  3.8424323656273585e-01  4.1646479993494756e-01  4.4951855667756024e-01  4.8332241665606407e-01  5.1779791758426996e-01  5.5287134816658556e-01  5.8847424565023720e-01  6.2454344848453813e-01  6.6102085885013717e-01  6.9785303353050898e-01  7.3499068664029543e-01  7.7238815899565161e-01  8.1000288739925719e-01  8.4779489199930524e-01  8.8572628976908307e-01  9.2376083565890021e-01  9.6186348895605778e-01  1.0000000000000000e+00  -2.0000000000000000e+00  -1.6318809864041361e+00  -1.3793334613133075e+00  -1.1922714302029642e+00  -1.0463404647862735e+00  -9.2813719742318201e-01  -8.2961575802886167e-01  -7.4562614960170481e-01  -6.7270527575306438e-01  -6.0843164529753002e-01  -5.5105771628132716e-01  -4.9928912889959443e-01  -4.5214629712162729e-01  -4.0887445699075103e-01  -3.6888341256105289e-01  -3.3170613771020596e-01  -2.9696973456455134e-01  -2.6437473441153270e-01  -2.3368020806040940e-01  -2.0469307662670586e-01  -1.7726063072734399e-01  -1.5126573343389743e-01  -1.2662462233626942e-01  -1.0328774232312182e-01  -8.1244548824635637e-02  -6.0531888990596514e-02  -4.1224264851702871e-02  -2.3637474046829265e-02  -8.0516659279676953e-03  6.1702916054895618e-03  2.0005799005917230e-02  3.4245706357202074e-02  4.9258292960570695e-02  6.5104803360378896e-02  8.1846957571611992e-02  9.9541896122440132e-02  1.1823980218679672e-01  1.3798538143505118e-01  1.5881912445371713e-01  1.8077499642815897e-01  2.0387732535152336e-01  2.2813817201262124e-01  2.5355536740089579e-01  2.8011154133898247e-01  3.0777439346372049e-01  3.3649818130583581e-01  3.6622616262111002e-01  3.9689357867288977e-01  4.2843072960705370e-01  4.6076577102930832e-01  4.9382700280303404e-01  5.2754456564812913e-01  5.6185156935417935e-01  5.9668473783934273e-01  6.3198467855443752e-01  6.6769588065075403e-01  7.0376653049182147e-01  7.4014821322281721e-01  7.7679555014051072e-01  8.1366580570110525e-01  8.5071848568586983e-01  8.8791493901754948e-01  9.2521796937792034e-01  9.6259145847595917e-01  1.0000000000000000e+00  -2.0000000000000000e+00  -1.6126985160113472e+00  -1.3518161911713540e+00  -1.1608980270271405e+00  -1.0132299317365459e+00  -8.9438516908440147e-01  -7.9582374396865840e-01  -7.1213828102440691e-01  -6.3972412924952782e-01  -5.7607890562837061e-01  -5.1940769516795138e-01  -4.6838810514836215e-01  -4.2202408993839141e-01  -3.7955158172840031e-01  -3.4037565176847168e-01  -3.0402757338564629e-01  -2.7013486403952192e-01  -2.3840005990883520e-01  -2.0858556534692504e-01  -1.8050291359066958e-01  -1.5400545590980411e-01  -1.2898406522139025e-01  -1.0536613650750201e-01  -8.3119477479746282e-02  -6.2265637706006002e-02  -4.2894899047237631e-02  -2.5236748380230965e-02  -9.6594097423224074e-03  4.4217416857640409e-03  1.8009099191226261e-02  3.1951401075926776e-02