<?xml version="1.0"?>
<VTKFile type="UnstructuredGrid"  version="0.1"  >
<UnstructuredGrid>
<Piece  NumberOfPoints="441" NumberOfCells="800">
<Points>
<DataArray  type="Float64"  NumberOfComponents="3"  format="ascii">0 0 0  0.05 0 0  0.1 0 0  0.15 0 0  0.2 0 0  0.25 0 0  0.3 0 0  0.35 0 0  0.4 0 0  0.45 0 0  0.5 0 0  0.55 0 0  0.6 0 0  0.65 0 0  0.7 0 0  0.75 0 0  0.8 0 0  0.85 0 0  0.9 0 0  0.95 0 0  1 0 0  0 0.05 0  0.05 0.05 0  0.1 0.05 0  0.15 0.05 0  0.2 0.05 0  0.25 0.05 0  0.3 0.05 0  0.35 0.05 0  0.4 0.05 0  0.45 0.05 0  0.5 0.05 0  0.55 0.05 0  0.6 0.05 0  0.65 0.05 0  0.7 0.05 0  0.75 0.05 0  0.8 0.05 0  0.85 0.05 0  0.9 0.05 0  0.95 0.05 0  1 0.05 0  0 0.1 0  0.05 0.1 0  0.1 0.1 0  0.15 0.1 0  0.2 0.1 0  0.25 0.1 0  0.3 0.1 0  0.35 0.1 0  0.4 0.1 0  0.45 0.1 0  0.5 0.1 0  0.55 0.1 0  0.6 0.1 0  0.65 0.1 0  0.7 0.1 0  0.75 0.1 0  0.8 0.1 0  0.85 0.1 0  0.9 0.1 0  0.95 0.1 0  1 0.1 0  0 0.15 0  0.05 0.15 0  0.1 0.15 0  0.15 0.15 0  0.2 0.15 0  0.25 0.15 0  0.3 0.15 0  0.35 0.15 0  0.4 0.15 0  0.45 0.15 0  0.5 0.15 0  0.55 0.15 0  0.6 0.15 0  0.65 0.15 0  0.7 0.15 0  0.75 0.15 0  0.8 0.15 0  0.85 0.15 0  0.9 0.15 0  0.95 0.15 0  1 0.15 0  0 0.2 0  0.05 0.2 0  0.1 0.2 0  0.15 0.2 0  0.2 0.2 0  0.25 0.2 0  0.3 0.2 0  0.35 0.2 0  0.4 0.2 0  0.45 0.2 0  0.5 0.2 0  0.55 0.2 0  0.6 0.2 0  0.65 0.2 0  0.7 0.2 0  0.75 0.2 0  0.8 0.2 0  0.85 0.2 0  0.9 0.2 0  0.95 0.2 0  1 0.2 0  0 0.25 0  0.05 0.25 0  0.1 0.25 0  0.15 0.25 0  0.2 0.25 0  0.25 0.25 0  0.3 0.25 0  0.35 0.25 0  0.4 0.25 0  0.45 0.25 0  0.5 0.25 0  0.55 0.25 0  0.6 0.25 0  0.65 0.25 0  0.7 0.25 0  0.75 0.25 0  0.8 0.25 0  0.85 0.25 0  0.9 0.25 0  0.95 0.25 0  1 0.25 0  0 0.3 0  0.05 0.3 0  0.1 0.3 0  0.15 0.3 0  0.2 0.3 0  0.25 0.3 0  0.3 0.3 0  0.35 0.3 0  0.4 0.3 0  0.45 0.3 0  0.5 0.3 0  0.55 0.3 0  0.6 0.3 0  0.65 0.3 0  0.7 0.3 0  0.75 0.3 0  0.8 0.3 0  0.85 0.3 0  0.9 0.3 0  0.95 0.3 0  1 0.3 0  0 0.35 0  0.05 0.35 0  0.1 0.35 0  0.15 0.35 0  0.2 0.35 0  0.25 0.35 0  0.3 0.35 0  0.35 0.35 0  0.4 0.35 0  0.45 0.35 0  0.5 0.35 0  0.55 0.35 0  0.6 0.35 0  0.65 0.35 0  0.7 0.35 0  0.75 0.35 0  0.8 0.35 0  0.85 0.35 0  0.9 0.35 0  0.95 0.35 0  1 0.35 0  0 0.4 0  0.05 0.4 0  0.1 0.4 0  0.15 0.4 0  0.2 0.4 0  0.25 0.4 0  0.3 0.4 0  0.35 0.4 0  0.4 0.4 0  0.45 0.4 0  0.5 0.4 0  0.55 0.4 0  0.6 0.4 0  0.65 0.4 0  0.7 0.4 0  0.75 0.4 0  0.8 0.4 0  0.85 0.4 0  0.9 0.4 0  0.95 0.4 0  1 0.4 0  0 0.45 0  0.05 0.45 0  0.1 0.45 0  0.15 0.45 0  0.2 0.45 0  0.25 0.45 0  0.3 0.45 0  0.35 0.45 0  0.4 0.45 0  0.45 0.45 0  0.5 0.45 0  0.55 0.45 0  0.6 0.45 0  0.65 0.45 0  0.7 0.45 0  0.75 0.45 0  0.8 0.45 0  0.85 0.45 0  0.9 0.45 0  0.95 0.45 0  1 0.45 0  0 0.5 0  0.05 0.5 0  0.1 0.5 0  0.15 0.5 0  0.2 0.5 0  0.25 0.5 0  0.3 0.5 0  0.35 0.5 0  0.4 0.5 0  0.45 0.5 0  0.5 0.5 0  0.55 0.5 0  0.6 0.5 0  0.65 0.5 0  0.7 0.5 0  0.75 0.5 0  0.8 0.5 0  0.85 0.5 0  0.9 0.5 0  0.95 0.5 0  1 0.5 0  0 0.55 0  0.05 0.55 0  0.1 0.55 0  0.15 0.55 0  0.2 0.55 0  0.25 0.55 0  0.3 0.55 0  0.35 0.55 0  0.4 0.55 0  0.45 0.55 0  0.5 0.55 0  0.55 0.55 0  0.6 0.55 0  0.65 0.55 0  0.7 0.55 0  0.75 0.55 0  0.8 0.55 0  0.85 0.55 0  0.9 0.55 0  0.95 0.55 0  1 0.55 0  0 0.6 0  0.05 0.6 0  0.1 0.6 0  0.15 0.6 0  0.2 0.6 0  0.25 0.6 0  0.3 0.6 0  0.35 0.6 0  0.4 0.6 0  0.45 0.6 0  0.5 0.6 0  0.55 0.6 0  0.6 0.6 0  0.65 0.6 0  0.7 0.6 0  0.75 0.6 0  0.8 0.6 0  0.85 0.6 0  0.9 0.6 0  0.95 0.6 0  1 0.6 0  0 0.65 0  0.05 0.65 0  0.1 0.65 0  0.15 0.65 0  0.2 0.65 0  0.25 0.65 0  0.3 0.65 0  0.35 0.65 0  0.4 0.65 0  0.45 0.65 0  0.5 0.65 0  0.55 0.65 0  0.6 0.65 0  0.65 0.65 0  0.7 0.65 0  0.75 0.65 0  0.8 0.65 0  0.85 0.65 0  0.9 0.65 0  0.95 0.65 0  1 0.65 0  0 0.7 0  0.05 0.7 0  0.1 0.7 0  0.15 0.7 0  0.2 0.7 0  0.25 0.7 0  0.3 0.7 0  0.35 0.7 0  0.4 0.7 0  0.45 0.7 0  0.5 0.7 0  0.55 0.7 0  0.6 0.7 0  0.65 0.7 0  0.7 0.7 0  0.75 0.7 0  0.8 0.7 0  0.85 0.7 0  0.9 0.7 0  0.95 0.7 0  1 0.7 0  0 0.75 0  0.05 0.75 0  0.1 0.75 0  0.15 0.75 0  0.2 0.75 0  0.25 0.75 0  0.3 0.75 0  0.35 0.75 0  0.4 0.75 0  0.45 0.75 0  0.5 0.75 0  0.55 0.75 0  0.6 0.75 0  0.65 0.75 0  0.7 0.75 0  0.75 0.75 0  0.8 0.75 0  0.85 0.75 0  0.9 0.75 0  0.95 0.75 0  1 0.75 0  0 0.8 0  0.05 0.8 0  0.1 0.8 0  0.15 0.8 0  0.2 0.8 0  0.25 0.8 0  0.3 0.8 0  0.35 0.8 0  0.4 0.8 0  0.45 0.8 0  0.5 0.8 0  0.55 0.8 0  0.6 0.8 0  0.65 0.8 0  0.7 0.8 0  0.75 0.8 0  0.8 0.8 0  0.85 0.8 0  0.9 0.8 0  0.95 0.8 0  1 0.8 0  0 0.85 0  0.05 0.85 0  0.1 0.85 0  0.15 0.85 0  0.2 0.85 0  0.25 0.85 0  0.3 0.85 0  0.35 0.85 0  0.4 0.85 0  0.45 0.85 0  0.5 0.85 0  0.55 0.85 0  0.6 0.85 0  0.65 0.85 0  0.7 0.85 0  0.75 0.85 0  0.8 0.85 0  0.85 0.85 0  0.9 0.85 0  0.95 0.85 0  1 0.85 0  0 0.9 0  0.05 0.9 0  0.1 0.9 0  0.15 0.9 0  0.2 0.9 0  0.25 0.9 0  0.3 0.9 0  0.35 0.9 0  0.4 0.9 0  0.45 0.9 0  0.5 0.9 0  0.55 0.9 0  0.6 0.9 0  0.65 0.9 0  0.7 0.9 0  0.75 0.9 0  0.8 0.9 0  0.85 0.9 0  0.9 0.9 0  0.95 0.9 0  1 0.9 0  0 0.95 0  0.05 0.95 0  0.1 0.95 0  0.15 0.95 0  0.2 0.95 0  0.25 0.95 0  0.3 0.95 0  0.35 0.95 0  0.4 0.95 0  0.45 0.95 0  0.5 0.95 0  0.55 0.95 0  0.6 0.95 0  0.65 0.95 0  0.7 0.95 0  0.75 0.95 0  0.8 0.95 0  0.85 0.95 0  0.9 0.95 0  0.95 0.95 0  1 0.95 0  0 1 0  0.05 1 0  0.1 1 0  0.15 1 0  0.2 1 0  0.25 1 0  0.3 1 0  0.35 1 0  0.4 1 0  0.45 1 0  0.5 1 0  0.55 1 0  0.6 1 0  0.65 1 0  0.7 1 0  0.75 1 0  0.8 1 0  0.85 1 0  0.9 1 0  0.95 1 0  1 1 0  </DataArray>
</Points>
<Cells>
[...]
<PointData  Scalars="f_6"> 
<DataArray  type="Float64"  Name="f_6"  format="ascii">-2.0000000000000000e+00  -1.8499999999999999e+00  -1.7000000000000000e+00  -1.5500000000000000e+00  -1.4000000000000001e+00  -1.2500000000000000e+00  -1.0999999999999999e+00  -9.4999999999999996e-01  -7.9999999999999993e-01  -6.5000000000000013e-01  -5.0000000000000000e-01  -3.4999999999999987e-01  -2.0000000000000007e-01  -4.9999999999999933e-02  9.9999999999999867e-02  2.5000000000000000e-01  4.0000000000000013e-01  5.4999999999999993e-01  7.0000000000000007e-01  8.4999999999999987e-01  1.0000000000000000e+00  -2.0000000000000000e+00  -1.2374586051699432e+00  -1.0786491764252317e+00  -9.9589739212503314e-01  -9.2957384039174507e-01  -8.6537153797227639e-01  -7.9380713789669777e-01  -7.0809169744134515e-01  -6.0682673547027755e-01  -4.9239631144989110e-01  -3.6897406076947870e-01  -2.3992770363503182e-01  -1.0732825186529804e-01  2.7636532978197455e-02  1.6425592505013833e-01  3.0206861278778657e-01  4.4075155280083123e-01  5.8006336695712091e-01  7.1981274719935462e-01  8.5983917241451135e-01  1.0000000000000000e+00  -2.0000000000000000e+00  -9.0639299134433249e-01  -7.3803916891969901e-01  -6.8038149881391230e-01  -6.4301488785590544e-01  -6.0774160701943258e-01  -5.6499374969594929e-01  -5.0831948672799476e-01  -4.3485517543635377e-01  -3.4551645012388799e-01  -2.4382562453915851e-01  -1.3343000706999111e-01  -1.7022572968035884e-02  1.0361845510893286e-01  2.2731855443456370e-01  3.5326697330017670e-01  4.8087423145841668e-01  6.0968916782829807e-01  7.3934844942578593e-01  8.6954394245869104e-01  1.0000000000000000e+00  -2.0000000000000000e+00  -6.8314481061181653e-01  -5.0008685709160439e-01  -4.5526892622095461e-01  -4.3140442432737486e-01  -4.0901502293999031e-01  -3.8025158156833361e-01  -3.3958105921874671e-01  -2.8362586975017456e-01  -2.1214794649467544e-01  -1.2756213010052783e-01  -3.2959835369856548e-02  6.9048977455749672e-02  1.7654130355073289e-01  2.8813286427900503e-01  4.0280649451994005e-01  5.1978923190436055e-01  6.3847062347186900e-01  7.5834794021679997e-01  8.7898814799446767e-01  1.0000000000000000e+00  -2.0000000000000000e+00  -5.1605939370451237e-01  -3.1964304611613953e-01  -2.8088195507369157e-01  -2.6381765700481935e-01  -2.4801839310165019e-01  -2.2689295934288142e-01  -1.9577465500006261e-01  -1.5133614172809143e-01  -9.2723210257594252e-02  -2.1447703408178510e-02  6.0092154361088015e-02  1.4963662325653512e-01  2.4536491570762423e-01  3.4586510461078340e-01  4.5003690859621809e-01  5.5700557816721641e-01  6.6605615393801809e-01  7.7658453997507682e-01  8.8806070930237957e-01  1.0000000000000000e+00  -2.0000000000000000e+00  -3.8287398754620422e-01  -1.7569999089013780e-01  -1.3965368030434644e-01  -1.2610835800924883e-01  -1.1393053291630117e-01  -9.7312257999231710e-02  -7.2274171491324854e-02  -3.5741079686081131e-02  1.3413046603952969e-02  7.4302053076489460e-02  1.4513069754703001e-01  2.2404015454970244e-01  3.0941663027990868e-01  3.9992572986028663e-01  4.9447045708693271e-01  5.9214001823026863e-01  6.9216387413791058e-01  7.9387335644310963e-01  8.9667014923997512e-01  1.0000000000000000e+00  -2.0000000000000000e+00  -2.7292567381998911e-01  -5.6823734248970442e-02  -2.1938006070294645e-02  -1.0308714796472837e-02  -2.6665730217762722e-04  1.3494517313972706e-02  3.4424628783356385e-02  6.5300407871302146e-02  1.0733062284968628e-01  1.6003428767957834e-01  2.2208159220347154e-01  2.9197644675731155e-01  3.6833572021069011e-01  4.4995072746352155e-01  5.3577917166095790e-01  6.2492016352901492e-01  7.1658596794024620e-01  8.1007486241947635e-01  9.0474653121441140e-01  1.0000000000000000e+00  -2.0000000000000000e+00  -1.8020225938120701e-01  4.3530475149345084e-02  7.7969404471065318e-02  8.8476799827793287e-02  9.7160243967477300e-02  1.0898364203546694e-01  1.2698547263275164e-01  1.5365579872599874e-01  1.9019018216152325e-01  2.3636095612271926e-01  2.9117953576101457e-01  3.5344814983463657e-01  4.2199907577678314e-01  4.9576228812215184e-01  5.7377533856436247e-01  6.5517549628458693e-01  7.3918497167458275e-01  8.2509359408013816e-01  9.1224111319819368e-01  1.0000000000000000e+00  -2.0000000000000000e+00  -1.0097736012273839e-01  1.2935166217484834e-01  1.6367024729715382e-01  1.7346376821140705e-01  1.8121550802813746e-01  1.9164246135764040e-01  2.0745891013947176e-01  2.3089889355566059e-01  2.6310008724302814e-01  3.0398949621514798e-01  3.5282309110945670e-01  4.0863740688908023e-01  4.7045014452627604e-01  5.3732401068394031e-01  6.0838439818975354e-01  6.8282151137038771e-01  7.5988482839336002e-01  8.3887342902829964e-01  9.1912432749822515e-01  1.0000000000000000e+00  -2.0000000000000000e+00  -3.2794767720855066e-02  2.0324284238133736e-01  2.3758544482885807e-01  2.4688605656072371e-01  2.5395490233205631e-01  2.6332362757482136e-01  2.7744763474678102e-01  2.9833934876206930e-01  3.2706108169308462e-01  3.6363214249676418e-01  4.0748234922493076e-01  4.5782813428402314e-01  5.1384008444560392e-01  5.7469921189757989e-01  6.3961673214032322e-01  7.0784132261385024e-01  7.7865940150017021e-01  8.5139096614147547e-01  9.2538276776640738e-01  1.0000000000000000e+00  -2.0000000000000000e+00  2.6052611440797152e-02  2.6701021405783959e-01  3.0143344956019513e-01  3.1036902428391966e-01  3.1691054897455562e-01  3.2544629068585768e-01  3.3822274625520221e-01  3.5706337265733817e-01  3.8295168754989539e-01  4.1596045134790816e-01  4.5564303905090076e-01  5.0135260831218675e-01  5.5238284683688255e-01  6.0801602032045265e-01  6.6754199586010932e-01  7.3026764544452005e-01  7.9552048885199567e-01  8.6264826627102431e-01  9.3101577742592956e-01  1.0000000000000000e+00  -2.0000000000000000e+00  7.6808258301459778e-02  3.2197080123199745e-01  3.5648834183269223e-01  3.6513911840355501e-01  3.7125865569604877e-01  3.7912175577648216e-01  3.9080501688850672e-01  4.0797208246265770e-01  4.3153123468749394e-01  4.6158475401977117e-01  4.9777420601203193e-01  5.3955633950064252e-01  5.8632267408257155e-01  6.3744002668723843e-01  6.9226758553514200e-01  7.5016677445212487e-01  8.1050664219226887e-01  8.7266583266469688e-01  9.3603207566628643e-01  1.0000000000000000e+00  -2.0000000000000000e+00  1.2041178403019615e-01  3.6911998966502563e-01  4.0372519453393385e-01  4.1214683507097427e-01  4.1792208499567152e-01  4.2523453362013491e-01  4.3602197065110204e-01  4.5181368674426675e-01  4.7344955323997800e-01  5.0104684323484450e-01  5.3431049756386506e-01  5.7277580719688492e-01  6.1591148315541799e-01  6.6315382681078805e-01  7.1392154514109485e-01  7.6762522463656857e-01  8.2367347280025904e-01  8.8147634652920737e-01  9.4044669257451963e-01  1.0000000000000000e+00  -2.0000000000000000e+00  1.5758625227522791e-01  4.0922531220179759e-01  4.4390526344815900e-01  4.5214179958895478e-01  4.5763543580159516e-01  4.6449616258661713e-01  4.7454838408413447e-01  4.8920921570779508e-01  5.0925830998519217e-01  5.3481935538672898e-01  5.6564321132021256e-01  6.0132485475756559e-01  6.4139362440801762e-01  6.8534225225940115e-01  7.3263954358188144e-01  7.8273910615279607e-01  8.3508567784299170e-01  8.8911938807735447e-01  9.4427834810258482e-01  1.0000000000000000e+00  -2.0000000000000000e+00  1.8887382128863872e-01  4.4287715172687769e-01  4.7762733913024441e-01  4.8572034547856530e-01  4.9098782079583481e-01  4.9748197198168492e-01  5.0693541898763683e-01  5.2067266651942945e-01  5.3942183107280717e-01  5.6330827023914876e-01  5.9211642827044375e-01  6.2548672893705803e-01  6.6299590735596248e-01  7.0418201423691784e-01  7.4855527077423389e-01  7.9560597854974313e-01  8.4481074434155667e-01  8.9563717983463420e-01  9.4754731175846540e-01  1.0000000000000000e+00  -2.0000000000000000e+00  2.1460960349868791e-01  4.7050852855463066e-01  5.0535899656829908e-01  5.1335689991520894e-01  5.1845209710224782e-01  5.2465696893006319e-01  5.3363192935091330e-01  5.4662664417391849e-01  5.6432658600486019e-01  5.8685659834326076e-01  6.1402596081029093e-01  6.4550968334200298e-01  6.8092126175275913e-01  7.1983462655807451e-01  7.6179354672839295e-01  8.0631879293038577e-01  8.5291414113885822e-01  9.0107127516116092e-01  9.5027371909664238e-01  1.0000000000000000e+00  -2.0000000000000000e+00  2.3477419880715553e-01  4.9238647613524777e-01  5.2745615493211417e-01  5.3542611327325973e-01  5.4040590852870085e-01  5.4639473076325062e-01  5.5500033191351361e-01  5.6741444519900763e-01  5.8428908233322052e-01  6.0574821626773934e-01  6.3161972233788299e-01  6.6160474381405288e-01  6.9534482967677658e-01  7.3244168351422811e-01  7.7246549665087738e-01  8.1496150530454869e-01  8.5945575212232928e-01  9.0546006057450967e-01  9.5247628946694318e-01  1.0000000000000000e+00  -2.0000000000000000e+00  2.4858638567628408e-01  5.0858364351497010e-01  5.4418003259452619e-01  5.5222080409416985e-01  5.5714791947322717e-01  5.6299172999609437e-01  5.7132859378176748e-01  5.8330927024752532e-01  5.9956211161525652e-01  6.2021126708093255e-01  6.4509865802942923e-01  6.7394470486229496e-01  7.0641162955586922e-01  7.4212178117118388e-01  7.8066525105633922e-01  8.2160597951460301e-01  8.6448730147140096e-01  9.0883692554760509e-01  9.5417137819662101e-01  1.0000000000000000e+00  -2.0000000000000000e+00  2.5377457928448893e-01  5.1900694189262753e-01  5.5572873621709451e-01  5.6396929240278404e-01  5.6891074784210072e-01  5.7467839346941163e-01  5.8283924709518264e-01  5.9452093600248446e-01  6.1033927086488193e-01  6.3042075775785922e-01  6.5461770212281667e-01  6.8266375523587097e-01  7.1423520244879768e-01  7.4896856055829952e-01  7.8646774688869214e-01  8.2630986022612396e-01  8.6805054870106690e-01  9.1122896194788916e-01  9.5537229777193744e-01  1.0000000000000000e+00  -2.0000000000000000e+00  2.4750470213846651e-01  5.2381365495186072e-01  5.6230850875448046e-01  5.7084869528066928e-01  5.7586866156933958e-01  5.8162736614099531e-01  5.8969596483416875e-01  6.0120009297593202e-01  6.1675752354767321e-01  6.3650007457593460e-01  6.6028645376175665e-01  6.8785738023439236e-01  7.1889686438466260e-01  7.5304951172452483e-01  7.8992731571400621e-01  8.2911516580013400e-01  8.7017607115885376e-01  9.1265607577094754e-01  9.5608885094323914e-01  1.0000000000000000e+00  -2.0000000000000000e+00  2.4810066653273866e-01  5.2478364814311163e-01  5.6420000280927851e-01  5.7296324131147880e-01  5.7813217697374519e-01  5.8396071671439298e-01  5.9200858306020321e-01  6.0343935172404406e-01  6.1889721152285393e-01  6.3852121384693372e-01  6.6216950569510769e-01  6.8958241720501234e-01  7.2044536307280138e-01  7.5440530624113122e-01  7.9107683844267396e-01  8.3004741610155219e-01  8.7088249436326681e-01  9.1313041903380843e-01  9.5632703023007193e-01  1.0000000000000000e+00  </DataArray> 
</PointData> 
</Piece>
</UnstructuredGrid>
</VTKFile>