<?xml version="1.0"?>
<VTKFile type="UnstructuredGrid"  version="0.1"  >
<UnstructuredGrid>
<Piece  NumberOfPoints="441" NumberOfCells="800">
<Points>
<DataArray  type="Float64"  NumberOfComponents="3"  format="ascii">0 0 0  0.05 0 0  0.1 0 0  0.15 0 0  0.2 0 0  0.25 0 0  0.3 0 0  0.35 0 0  0.4 0 0  0.45 0 0  0.5 0 0  0.55 0 0  0.6 0 0  0.65 0 0  0.7 0 0  0.75 0 0  0.8 0 0  0.85 0 0  0.9 0 0  0.95 0 0  1 0 0  0 0.05 0  0.05 0.05 0  0.1 0.05 0  0.15 0.05 0  0.2 0.05 0  0.25 0.05 0  0.3 0.05 0  0.35 0.05 0  0.4 0.05 0  0.45 0.05 0  0.5 0.05 0  0.55 0.05 0  0.6 0.05 0  0.65 0.05 0  0.7 0.05 0  0.75 0.05 0  0.8 0.05 0  0.85 0.05 0  0.9 0.05 0  0.95 0.05 0  1 0.05 0  0 0.1 0  0.05 0.1 0  0.1 0.1 0  0.15 0.1 0  0.2 0.1 0  0.25 0.1 0  0.3 0.1 0  0.35 0.1 0  0.4 0.1 0  0.45 0.1 0  0.5 0.1 0  0.55 0.1 0  0.6 0.1 0  0.65 0.1 0  0.7 0.1 0  0.75 0.1 0  0.8 0.1 0  0.85 0.1 0  0.9 0.1 0  0.95 0.1 0  1 0.1 0  0 0.15 0  0.05 0.15 0  0.1 0.15 0  0.15 0.15 0  0.2 0.15 0  0.25 0.15 0  0.3 0.15 0  0.35 0.15 0  0.4 0.15 0  0.45 0.15 0  0.5 0.15 0  0.55 0.15 0  0.6 0.15 0  0.65 0.15 0  0.7 0.15 0  0.75 0.15 0  0.8 0.15 0  0.85 0.15 0  0.9 0.15 0  0.95 0.15 0  1 0.15 0  0 0.2 0  0.05 0.2 0  0.1 0.2 0  0.15 0.2 0  0.2 0.2 0  0.25 0.2 0  0.3 0.2 0  0.35 0.2 0  0.4 0.2 0  0.45 0.2 0  0.5 0.2 0  0.55 0.2 0  0.6 0.2 0  0.65 0.2 0  0.7 0.2 0  0.75 0.2 0  0.8 0.2 0  0.85 0.2 0  0.9 0.2 0  0.95 0.2 0  1 0.2 0  0 0.25 0  0.05 0.25 0  0.1 0.25 0  0.15 0.25 0  0.2 0.25 0  0.25 0.25 0  0.3 0.25 0  0.35 0.25 0  0.4 0.25 0  0.45 0.25 0  0.5 0.25 0  0.55 0.25 0  0.6 0.25 0  0.65 0.25 0  0.7 0.25 0  0.75 0.25 0  0.8 0.25 0  0.85 0.25 0  0.9 0.25 0  0.95 0.25 0  1 0.25 0  0 0.3 0  0.05 0.3 0  0.1 0.3 0  0.15 0.3 0  0.2 0.3 0  0.25 0.3 0  0.3 0.3 0  0.35 0.3 0  0.4 0.3 0  0.45 0.3 0  0.5 0.3 0  0.55 0.3 0  0.6 0.3 0  0.65 0.3 0  0.7 0.3 0  0.75 0.3 0  0.8 0.3 0  0.85 0.3 0  0.9 0.3 0  0.95 0.3 0  1 0.3 0  0 0.35 0  0.05 0.35 0  0.1 0.35 0  0.15 0.35 0  0.2 0.35 0  0.25 0.35 0  0.3 0.35 0  0.35 0.35 0  0.4 0.35 0  0.45 0.35 0  0.5 0.35 0  0.55 0.35 0  0.6 0.35 0  0.65 0.35 0  0.7 0.35 0  0.75 0.35 0  0.8 0.35 0  0.85 0.35 0  0.9 0.35 0  0.95 0.35 0  1 0.35 0  0 0.4 0  0.05 0.4 0  0.1 0.4 0  0.15 0.4 0  0.2 0.4 0  0.25 0.4 0  0.3 0.4 0  0.35 0.4 0  0.4 0.4 0  0.45 0.4 0  0.5 0.4 0  0.55 0.4 0  0.6 0.4 0  0.65 0.4 0  0.7 0.4 0  0.75 0.4 0  0.8 0.4 0  0.85 0.4 0  0.9 0.4 0  0.95 0.4 0  1 0.4 0  0 0.45 0  0.05 0.45 0  0.1 0.45 0  0.15 0.45 0  0.2 0.45 0  0.25 0.45 0  0.3 0.45 0  0.35 0.45 0  0.4 0.45 0  0.45 0.45 0  0.5 0.45 0  0.55 0.45 0  0.6 0.45 0  0.65 0.45 0  0.7 0.45 0  0.75 0.45 0  0.8 0.45 0  0.85 0.45 0  0.9 0.45 0  0.95 0.45 0  1 0.45 0  0 0.5 0  0.05 0.5 0  0.1 0.5 0  0.15 0.5 0  0.2 0.5 0  0.25 0.5 0  0.3 0.5 0  0.35 0.5 0  0.4 0.5 0  0.45 0.5 0  0.5 0.5 0  0.55 0.5 0  0.6 0.5 0  0.65 0.5 0  0.7 0.5 0  0.75 0.5 0  0.8 0.5 0  0.85 0.5 0  0.9 0.5 0  0.95 0.5 0  1 0.5 0  0 0.55 0  0.05 0.55 0  0.1 0.55 0  0.15 0.55 0  0.2 0.55 0  0.25 0.55 0  0.3 0.55 0  0.35 0.55 0  0.4 0.55 0  0.45 0.55 0  0.5 0.55 0  0.55 0.55 0  0.6 0.55 0  0.65 0.55 0  0.7 0.55 0  0.75 0.55 0  0.8 0.55 0  0.85 0.55 0  0.9 0.55 0  0.95 0.55 0  1 0.55 0  0 0.6 0  0.05 0.6 0  0.1 0.6 0  0.15 0.6 0  0.2 0.6 0  0.25 0.6 0  0.3 0.6 0  0.35 0.6 0  0.4 0.6 0  0.45 0.6 0  0.5 0.6 0  0.55 0.6 0  0.6 0.6 0  0.65 0.6 0  0.7 0.6 0  0.75 0.6 0  0.8 0.6 0  0.85 0.6 0  0.9 0.6 0  0.95 0.6 0  1 0.6 0  0 0.65 0  0.05 0.65 0  0.1 0.65 0  0.15 0.65 0  0.2 0.65 0  0.25 0.65 0  0.3 0.65 0  0.35 0.65 0  0.4 0.65 0  0.45 0.65 0  0.5 0.65 0  0.55 0.65 0  0.6 0.65 0  0.65 0.65 0  0.7 0.65 0  0.75 0.65 0  0.8 0.65 0  0.85 0.65 0  0.9 0.65 0  0.95 0.65 0  1 0.65 0  0 0.7 0  0.05 0.7 0  0.1 0.7 0  0.15 0.7 0  0.2 0.7 0  0.25 0.7 0  0.3 0.7 0  0.35 0.7 0  0.4 0.7 0  0.45 0.7 0  0.5 0.7 0  0.55 0.7 0  0.6 0.7 0  0.65 0.7 0  0.7 0.7 0  0.75 0.7 0  0.8 0.7 0  0.85 0.7 0  0.9 0.7 0  0.95 0.7 0  1 0.7 0  0 0.75 0  0.05 0.75 0  0.1 0.75 0  0.15 0.75 0  0.2 0.75 0  0.25 0.75 0  0.3 0.75 0  0.35 0.75 0  0.4 0.75 0  0.45 0.75 0  0.5 0.75 0  0.55 0.75 0  0.6 0.75 0  0.65 0.75 0  0.7 0.75 0  0.75 0.75 0  0.8 0.75 0  0.85 0.75 0  0.9 0.75 0  0.95 0.75 0  1 0.75 0  0 0.8 0  0.05 0.8 0  0.1 0.8 0  0.15 0.8 0  0.2 0.8 0  0.25 0.8 0  0.3 0.8 0  0.35 0.8 0  0.4 0.8 0  0.45 0.8 0  0.5 0.8 0  0.55 0.8 0  0.6 0.8 0  0.65 0.8 0  0.7 0.8 0  0.75 0.8 0  0.8 0.8 0  0.85 0.8 0  0.9 0.8 0  0.95 0.8 0  1 0.8 0  0 0.85 0  0.05 0.85 0  0.1 0.85 0  0.15 0.85 0  0.2 0.85 0  0.25 0.85 0  0.3 0.85 0  0.35 0.85 0  0.4 0.85 0  0.45 0.85 0  0.5 0.85 0  0.55 0.85 0  0.6 0.85 0  0.65 0.85 0  0.7 0.85 0  0.75 0.85 0  0.8 0.85 0  0.85 0.85 0  0.9 0.85 0  0.95 0.85 0  1 0.85 0  0 0.9 0  0.05 0.9 0  0.1 0.9 0  0.15 0.9 0  0.2 0.9 0  0.25 0.9 0  0.3 0.9 0  0.35 0.9 0  0.4 0.9 0  0.45 0.9 0  0.5 0.9 0  0.55 0.9 0  0.6 0.9 0  0.65 0.9 0  0.7 0.9 0  0.75 0.9 0  0.8 0.9 0  0.85 0.9 0  0.9 0.9 0  0.95 0.9 0  1 0.9 0  0 0.95 0  0.05 0.95 0  0.1 0.95 0  0.15 0.95 0  0.2 0.95 0  0.25 0.95 0  0.3 0.95 0  0.35 0.95 0  0.4 0.95 0  0.45 0.95 0  0.5 0.95 0  0.55 0.95 0  0.6 0.95 0  0.65 0.95 0  0.7 0.95 0  0.75 0.95 0  0.8 0.95 0  0.85 0.95 0  0.9 0.95 0  0.95 0.95 0  1 0.95 0  0 1 0  0.05 1 0  0.1 1 0  0.15 1 0  0.2 1 0  0.25 1 0  0.3 1 0  0.35 1 0  0.4 1 0  0.45 1 0  0.5 1 0  0.55 1 0  0.6 1 0  0.65 1 0  0.7 1 0  0.75 1 0  0.8 1 0  0.85 1 0  0.9 1 0  0.95 1 0  1 1 0  </DataArray>
</Points>
<Cells>
[...]
<PointData  Scalars="f_6"> 
<DataArray  type="Float64"  Name="f_6"  format="ascii">-2.0000000000000000e+00  -1.8499999999999999e+00  -1.7000000000000000e+00  -1.5500000000000003e+00  -1.4000000000000001e+00  -1.2500000000000000e+00  -1.0999999999999999e+00  -9.5000000000000007e-01  -7.9999999999999993e-01  -6.5000000000000013e-01  -5.0000000000000000e-01  -3.4999999999999987e-01  -2.0000000000000007e-01  -4.9999999999999933e-02  9.9999999999999867e-02  2.5000000000000000e-01  4.0000000000000013e-01  5.4999999999999993e-01  7.0000000000000007e-01  8.4999999999999987e-01  1.0000000000000000e+00  -2.0000000000000000e+00  -1.7573847998024272e+00  -1.6140153450929766e+00  -1.4831378621192115e+00  -1.3482132674289489e+00  -1.2092251877332600e+00  -1.0679666082125108e+00  -9.2637357768035200e-01  -7.8333034550831060e-01  -6.3788913890546206e-01  -4.9069882027822997e-01  -3.4255205756259960e-01  -1.9391044537183275e-01  -4.4994632886562164e-02  1.0408893838791124e-01  2.5328291214286136e-01  4.0255247797440175e-01  5.5187431922013541e-01  7.0123144536051962e-01  8.5061047070832485e-01  1.0000000000000000e+00  -2.0000000000000000e+00  -1.7445794357680557e+00  -1.6018604652699040e+00  -1.4686783352634356e+00  -1.3338861550029462e+00  -1.1963355627995125e+00  -1.0566107180482200e+00  -9.1545306395660830e-01  -7.7275608461409040e-01  -6.2833368646027288e-01  -4.8247143899448586e-01  -3.3560876911771637e-01  -1.8809541562058155e-01  -4.0157026129505592e-02  1.0806747429534298e-01  2.5649023220913253e-01  4.0505268053460974e-01  5.5371335354562057e-01  7.0244099151361772e-01  8.5121043747278036e-01  1.0000000000000000e+00  -2.0000000000000000e+00  -1.7352379641636946e+00  -1.5976651495144907e+00  -1.4621573293513681e+00  -1.3256731066356171e+00  -1.1875405438878512e+00  -1.0477891845717322e+00  -9.0663594160135497e-01  -7.6412370834579080e-01  -6.2027261115938592e-01  -4.7525235723891635e-01  -3.2931668219842619e-01  -1.8270543056828875e-01  -3.5605530310595455e-02  1.1184775271383408e-01  2.5955786186371599e-01  4.0745465840928402e-01  5.5548542291412017e-01  7.0360872967555055e-01  8.5179028766917930e-01  1.0000000000000000e+00  -2.0000000000000000e+00  -1.7302380364351748e+00  -1.5936413438198689e+00  -1.4568211053446021e+00  -1.3191915185335230e+00  -1.1804147468214072e+00  -1.0404037326831219e+00  -8.9919833027288776e-01  -7.5683896913705440e-01  -6.1338290803259143e-01  -4.6894896199193298e-01  -3.2370018185976102e-01  -1.7780409417732304e-01  -3.1407417258421909e-02  1.1537120500687320e-01  2.6243880412261344e-01  4.0972266832468984e-01  5.5716495002602584e-01  7.0471821660528522e-01  8.5234198352838619e-01  1.0000000000000000e+00  -1.9999999999999998e+00  -1.7271518219971829e+00  -1.5900127176267074e+00  -1.4522996126339862e+00  -1.3138587855049275e+00  -1.1745242207326709e+00  -1.0342134155988272e+00  -8.9291514356394852e-01  -7.5065112082312491e-01  -6.0747112875876885e-01  -4.6346040346913941e-01  -3.1873098909323744e-01  -1.7340334702282026e-01  -2.7591249552642697e-02  1.1860568044946757e-01  2.6510348129517503e-01  4.1183226074083584e-01  5.5873349226000801e-01  7.0575720319117818e-01  8.5285942983908181e-01  1.0000000000000000e+00  -2.0000000000000000e+00  -1.7249117415118909e+00  -1.5869702919683508e+00  -1.4485059293431650e+00  -1.3094198079333264e+00  -1.1696099450098121e+00  -1.0290105723417580e+00  -8.8759771136123811e-01  -7.4537924295481595e-01  -6.0239008281704520e-01  -4.5869053403368465e-01  -3.1436002402122970e-01  -1.6948705526807761e-01  -2.4159914378796502e-02  1.2153928504846490e-01  2.6753717986778336e-01  4.1376940108347043e-01  5.6017955508199246e-01  7.0671767406033781e-01  8.5333853263676285e-01  1.0000000000000000e+00  -2.0000000000000000e+00  -1.7231466295453124e+00  -1.5844514846455260e+00  -1.4453340052058008e+00  -1.3057045719063234e+00  -1.1654851790434759e+00  -1.0246212174028331e+00  -8.8308588658596909e-01  -7.4087805681795471e-01  -5.9801942552091125e-01  -4.5455162582732428e-01  -3.1053151768991916e-01  -1.6602493564946372e-01  -2.1100637742930872e-02  1.2417419425540545e-01  2.6973655204402297e-01  4.1552860864327018e-01  5.6149765292415321e-01  7.0759540533141818e-01  8.5377702664763166e-01  1.0000000000000000e+00  -2.0000000000000000e+00  -1.7217024962728871e+00  -1.5823550395544883e+00  -1.4426740349281975e+00  -1.3025792954426902e+00  -1.1620049818549345e+00  -1.0209032316401303e+00  -8.7924656076185093e-01  -7.3702767221012289e-01  -5.9425793662132043e-01  -4.5096502606478239e-01  -3.0718948526165907e-01  -1.6298053189692693e-01  -1.8391895198869013e-02  1.2652157767206518e-01  2.7170622540963330e-01  4.1711082852143366e-01  5.6268704263993241e-01  7.0838926769354993e-01  8.5417416862234519e-01  1.0000000000000000e+00  -2.0000000000000000e+00  -1.7204956588308398e+00  -1.5805921429054344e+00  -1.4404277995098100e+00  -1.2999335930813067e+00  -1.1590522212934420e+00  -1.0177401665409027e+00  -8.7596945261118220e-01  -7.3372813463936537e-01  -5.9101962268946540e-01  -4.4786105654882552e-01  -3.0428086539500798e-01  -1.6031581147771570e-01  -1.6007988827683697e-02  1.2859778622209131e-01  2.7345594340101115e-01  4.1852143739289860e-01  5.6375042142059284e-01  7.0910045418050405e-01  8.5453038014819982e-01  1.0000000000000000e+00  -1.9999999999999998e+00  -1.7194692815029848e+00  -1.5790900737288474e+00  -1.4385114271243007e+00  -1.2976750560792858e+00  -1.1565301436966233e+00  -1.0150357606188558e+00  -8.7316294850261023e-01  -7.3089579104669100e-01  -5.8823136294835032e-01  -4.4517871204604614e-01  -3.0175710829183189e-01  -1.5799385979124411e-01  -1.3922034856241751e-02  1.3042161264297272e-01  2.7499832457942119e-01  4.1976855622855636e-01  5.6469275146903664e-01  7.0973174745967316e-01  8.5484689778995016e-01  1.0000000000000000e+00  -2.0000000000000000e+00  -1.7185783639378371e+00  -1.5777874433826697e+00  -1.4368527791792618e+00  -1.2957250604149131e+00  -1.1543575367949102e+00  -1.0127097837352872e+00  -8.7075078973371189e-01  -7.2846071809643831e-01  -5.8583132601119881e-01  -4.4286532039517645e-01  -2.9957499593502979e-01  -1.5598048453918684e-01  -1.2107903449012180e-02  1.3201237462662041e-01  2.7634718604514491e-01  4.2086171147286872e-01  5.6552028076732441e-01  7.1028688639920179e-01  8.5512546355192820e-01  1.0000000000000000e+00  -2.0000000000000000e+00  -1.7177824073107757e+00  -1.5766285566847336e+00  -1.4353871857951643e+00  -1.2940148696061951e+00  -1.1524651593328168e+00  -1.0106950477936705e+00  -8.6866970860051240e-01  -7.2636496559415231e-01  -5.8376790260483002e-01  -4.4087624758843108e-01  -2.9769707051392430e-01  -1.5424517898146081e-01  -1.0541469027240832e-02  1.3338860326737653e-01  2.7751633350166921e-01  4.2181082285044869e-01  5.6623977372819156e-01  7.1077005381788261e-01  8.5536807001856030e-01  1.0000000000000000e+00  -2.0000000000000000e+00  -1.7170393505020831e+00  -1.5755571902503249e+00  -1.4340525377104667e+00  -1.2924820728818862e+00  -1.1507931831364919e+00  -1.0089355395060657e+00  -8.6686803128051459e-01  -7.2456153307482885e-01  -5.8199907122553762e-01  -4.3917469683979415e-01  -2.9609185955077560e-01  -1.5276169184549088e-01  -9.2013969458672375e-03  1.3456717396845769e-01  2.7851872184370680e-01  4.2262547269906514e-01  5.6685793747711155e-01  7.1118548512557689e-01  8.5557676270443050e-01  1.0000000000000000e+00  -2.0000000000000000e+00  -1.7162973279807792e+00  -1.5745083161040165e+00  -1.4327837019144909e+00  -1.2910677010743916e+00  -1.1492899608251985e+00  -1.0073858958135855e+00  -8.6530534394065184e-01  -7.2301406419911107e-01  -5.8049215238269691e-01  -4.3773160899443209e-01  -2.9473397900389353e-01  -1.5150833190385962e-01  -8.0696008791952024e-03  1.3556276770861497e-01  2.7936590720563514e-01  4.2331440862499359e-01  5.6738101835561183e-01  7.1153718650288289e-01  8.5575349567358538e-01  1.0000000000000000e+00  -1.9999999999999998e+00  -1.7154793452263253e+00  -1.5733950442704741e+00  -1.4315062527690885e+00  -1.2897150686759913e+00  -1.1479130632763250e+00  -1.0060127389824263e+00  -8.6395338446939574e-01  -7.2169722739826703e-01  -5.7922386511170654e-01  -4.3652560775134353e-01  -2.9360411556650745e-01  -1.5046805588685849e-01  -7.1314423756692023e-03  1.3638759053956259e-01  2.8006773064522539e-01  4.2388523623966207e-01  5.6781454081745986e-01  7.1182874685675757e-01  8.5590003348702859e-01  1.0000000000000000e+00  -2.0000000000000000e+00  -1.7144489562913816e+00  -1.5720862629824670e+00  -1.4301311962153977e+00  -1.2883732575841604e+00  -1.1466344846216818e+00  -1.0047986123703989e+00  -8.6279822755623792e-01  -7.2059759581285443e-01  -5.7818047291451946e-01  -4.3554284133272786e-01  -2.9268881962393467e-01  -1.4962833370139750e-01  -6.3757032761860366e-03  1.3705130618007952e-01  2.8063218859604167e-01  4.2434426487096921e-01  5.6816316181780835e-01  7.1206322661965904e-01  8.5601789141777207e-01  1.0000000000000000e+00  -2.0000000000000000e+00  -1.7129219947753902e+00  -1.5703698551526144e+00  -1.4285590115258755e+00  -1.2870122808235709e+00  -1.1454530052558425e+00  -1.0037489983212495e+00  -8.6184331757230181e-01  -7.1971445538239354e-01  -5.7735758940078874e-01  -4.3477646504111378e-01  -2.9197998789510621e-01  -1.4898075601861052e-01  -5.7943432077572589e-03  1.3756114886090023e-01  2.8106545268789251e-01  4.2469647283036510e-01  5.6843061496314484e-01  7.1224310638629773e-01  8.5610830556440098e-01  1.0000000000000000e+00  -2.0000000000000000e+00  -1.7102096139887824e+00  -1.5679121513267271e+00  -1.4267227139119181e+00  -1.2856638489284058e+00  -1.1444162572568672e+00  -1.0029010580864564e+00  -8.6111158902932572e-01  -7.1905931874362972e-01  -5.7675896426512807e-01  -4.3422544153583309e-01  -2.9147391089676605e-01  -1.4852035927018092e-01  -5.3820623971330668e-03  1.3792217978338642e-01  2.8137200046426303e-01  4.2494555879945400e-01  5.6861971881810836e-01  7.1237027839798650e-01  8.5617222445353580e-01  1.0000000000000000e+00  -2.0000000000000000e+00  -1.7043787645680515e+00  -1.5643464222535930e+00  -1.4247558438666632e+00  -1.2845041437212676e+00  -1.1436471167567643e+00  -1.0023273877383827e+00  -8.6064266171491444e-01  -7.1865226629767232e-01  -5.7639350738026029e-01  -4.3389242594032446e-01  -2.9116985488594455e-01  -1.4824470776821380e-01  -5.1357268939808401e-03  1.3813763220551589e-01  2.8155481058631909e-01  4.2509404308507920e-01  5.6873242311184879e-01  7.1244606393400367e-01  8.5621031385175572e-01  1.0000000000000000e+00  -2.0000000000000000e+00  -1.6892127769246716e+00  -1.5603389292529328e+00  -1.4234500955798739e+00  -1.2839497653332375e+00  -1.1433406783105406e+00  -1.0021187143953956e+00  -8.6047940379427723e-01  -7.1851357735188459e-01  -5.7627037301791639e-01  -4.3378089995925995e-01  -2.9106837493847432e-01  -1.4815289002274873e-01  -5.0537696160926704e-03  1.3820926534633926e-01  2.8161556659041820e-01  4.2514337984269529e-01  5.6876986661020434e-01  7.1247124037442400e-01  8.5622296701948397e-01  1.0000000000000000e+00  </DataArray> 
</PointData> 
</Piece>
</UnstructuredGrid>
</VTKFile>