<?xml version="1.0"?>
<VTKFile type="UnstructuredGrid"  version="0.1"  >
<UnstructuredGrid>
<Piece  NumberOfPoints="441" NumberOfCells="800">
<Points>
<DataArray  type="Float64"  NumberOfComponents="3"  format="ascii">0 0 0  0.05 0 0  0.1 0 0  0.15 0 0  0.2 0 0  0.25 0 0  0.3 0 0  0.35 0 0  0.4 0 0  0.45 0 0  0.5 0 0  0.55 0 0  0.6 0 0  0.65 0 0  0.7 0 0  0.75 0 0  0.8 0 0  0.85 0 0  0.9 0 0  0.95 0 0  1 0 0  0 0.05 0  0.05 0.05 0  0.1 0.05 0  0.15 0.05 0  0.2 0.05 0  0.25 0.05 0  0.3 0.05 0  0.35 0.05 0  0.4 0.05 0  0.45 0.05 0  0.5 0.05 0  0.55 0.05 0  0.6 0.05 0  0.65 0.05 0  0.7 0.05 0  0.75 0.05 0  0.8 0.05 0  0.85 0.05 0  0.9 0.05 0  0.95 0.05 0  1 0.05 0  0 0.1 0  0.05 0.1 0  0.1 0.1 0  0.15 0.1 0  0.2 0.1 0  0.25 0.1 0  0.3 0.1 0  0.35 0.1 0  0.4 0.1 0  0.45 0.1 0  0.5 0.1 0  0.55 0.1 0  0.6 0.1 0  0.65 0.1 0  0.7 0.1 0  0.75 0.1 0  0.8 0.1 0  0.85 0.1 0  0.9 0.1 0  0.95 0.1 0  1 0.1 0  0 0.15 0  0.05 0.15 0  0.1 0.15 0  0.15 0.15 0  0.2 0.15 0  0.25 0.15 0  0.3 0.15 0  0.35 0.15 0  0.4 0.15 0  0.45 0.15 0  0.5 0.15 0  0.55 0.15 0  0.6 0.15 0  0.65 0.15 0  0.7 0.15 0  0.75 0.15 0  0.8 0.15 0  0.85 0.15 0  0.9 0.15 0  0.95 0.15 0  1 0.15 0  0 0.2 0  0.05 0.2 0  0.1 0.2 0  0.15 0.2 0  0.2 0.2 0  0.25 0.2 0  0.3 0.2 0  0.35 0.2 0  0.4 0.2 0  0.45 0.2 0  0.5 0.2 0  0.55 0.2 0  0.6 0.2 0  0.65 0.2 0  0.7 0.2 0  0.75 0.2 0  0.8 0.2 0  0.85 0.2 0  0.9 0.2 0  0.95 0.2 0  1 0.2 0  0 0.25 0  0.05 0.25 0  0.1 0.25 0  0.15 0.25 0  0.2 0.25 0  0.25 0.25 0  0.3 0.25 0  0.35 0.25 0  0.4 0.25 0  0.45 0.25 0  0.5 0.25 0  0.55 0.25 0  0.6 0.25 0  0.65 0.25 0  0.7 0.25 0  0.75 0.25 0  0.8 0.25 0  0.85 0.25 0  0.9 0.25 0  0.95 0.25 0  1 0.25 0  0 0.3 0  0.05 0.3 0  0.1 0.3 0  0.15 0.3 0  0.2 0.3 0  0.25 0.3 0  0.3 0.3 0  0.35 0.3 0  0.4 0.3 0  0.45 0.3 0  0.5 0.3 0  0.55 0.3 0  0.6 0.3 0  0.65 0.3 0  0.7 0.3 0  0.75 0.3 0  0.8 0.3 0  0.85 0.3 0  0.9 0.3 0  0.95 0.3 0  1 0.3 0  0 0.35 0  0.05 0.35 0  0.1 0.35 0  0.15 0.35 0  0.2 0.35 0  0.25 0.35 0  0.3 0.35 0  0.35 0.35 0  0.4 0.35 0  0.45 0.35 0  0.5 0.35 0  0.55 0.35 0  0.6 0.35 0  0.65 0.35 0  0.7 0.35 0  0.75 0.35 0  0.8 0.35 0  0.85 0.35 0  0.9 0.35 0  0.95 0.35 0  1 0.35 0  0 0.4 0  0.05 0.4 0  0.1 0.4 0  0.15 0.4 0  0.2 0.4 0  0.25 0.4 0  0.3 0.4 0  0.35 0.4 0  0.4 0.4 0  0.45 0.4 0  0.5 0.4 0  0.55 0.4 0  0.6 0.4 0  0.65 0.4 0  0.7 0.4 0  0.75 0.4 0  0.8 0.4 0  0.85 0.4 0  0.9 0.4 0  0.95 0.4 0  1 0.4 0  0 0.45 0  0.05 0.45 0  0.1 0.45 0  0.15 0.45 0  0.2 0.45 0  0.25 0.45 0  0.3 0.45 0  0.35 0.45 0  0.4 0.45 0  0.45 0.45 0  0.5 0.45 0  0.55 0.45 0  0.6 0.45 0  0.65 0.45 0  0.7 0.45 0  0.75 0.45 0  0.8 0.45 0  0.85 0.45 0  0.9 0.45 0  0.95 0.45 0  1 0.45 0  0 0.5 0  0.05 0.5 0  0.1 0.5 0  0.15 0.5 0  0.2 0.5 0  0.25 0.5 0  0.3 0.5 0  0.35 0.5 0  0.4 0.5 0  0.45 0.5 0  0.5 0.5 0  0.55 0.5 0  0.6 0.5 0  0.65 0.5 0  0.7 0.5 0  0.75 0.5 0  0.8 0.5 0  0.85 0.5 0  0.9 0.5 0  0.95 0.5 0  1 0.5 0  0 0.55 0  0.05 0.55 0  0.1 0.55 0  0.15 0.55 0  0.2 0.55 0  0.25 0.55 0  0.3 0.55 0  0.35 0.55 0  0.4 0.55 0  0.45 0.55 0  0.5 0.55 0  0.55 0.55 0  0.6 0.55 0  0.65 0.55 0  0.7 0.55 0  0.75 0.55 0  0.8 0.55 0  0.85 0.55 0  0.9 0.55 0  0.95 0.55 0  1 0.55 0  0 0.6 0  0.05 0.6 0  0.1 0.6 0  0.15 0.6 0  0.2 0.6 0  0.25 0.6 0  0.3 0.6 0  0.35 0.6 0  0.4 0.6 0  0.45 0.6 0  0.5 0.6 0  0.55 0.6 0  0.6 0.6 0  0.65 0.6 0  0.7 0.6 0  0.75 0.6 0  0.8 0.6 0  0.85 0.6 0  0.9 0.6 0  0.95 0.6 0  1 0.6 0  0 0.65 0  0.05 0.65 0  0.1 0.65 0  0.15 0.65 0  0.2 0.65 0  0.25 0.65 0  0.3 0.65 0  0.35 0.65 0  0.4 0.65 0  0.45 0.65 0  0.5 0.65 0  0.55 0.65 0  0.6 0.65 0  0.65 0.65 0  0.7 0.65 0  0.75 0.65 0  0.8 0.65 0  0.85 0.65 0  0.9 0.65 0  0.95 0.65 0  1 0.65 0  0 0.7 0  0.05 0.7 0  0.1 0.7 0  0.15 0.7 0  0.2 0.7 0  0.25 0.7 0  0.3 0.7 0  0.35 0.7 0  0.4 0.7 0  0.45 0.7 0  0.5 0.7 0  0.55 0.7 0  0.6 0.7 0  0.65 0.7 0  0.7 0.7 0  0.75 0.7 0  0.8 0.7 0  0.85 0.7 0  0.9 0.7 0  0.95 0.7 0  1 0.7 0  0 0.75 0  0.05 0.75 0  0.1 0.75 0  0.15 0.75 0  0.2 0.75 0  0.25 0.75 0  0.3 0.75 0  0.35 0.75 0  0.4 0.75 0  0.45 0.75 0  0.5 0.75 0  0.55 0.75 0  0.6 0.75 0  0.65 0.75 0  0.7 0.75 0  0.75 0.75 0  0.8 0.75 0  0.85 0.75 0  0.9 0.75 0  0.95 0.75 0  1 0.75 0  0 0.8 0  0.05 0.8 0  0.1 0.8 0  0.15 0.8 0  0.2 0.8 0  0.25 0.8 0  0.3 0.8 0  0.35 0.8 0  0.4 0.8 0  0.45 0.8 0  0.5 0.8 0  0.55 0.8 0  0.6 0.8 0  0.65 0.8 0  0.7 0.8 0  0.75 0.8 0  0.8 0.8 0  0.85 0.8 0  0.9 0.8 0  0.95 0.8 0  1 0.8 0  0 0.85 0  0.05 0.85 0  0.1 0.85 0  0.15 0.85 0  0.2 0.85 0  0.25 0.85 0  0.3 0.85 0  0.35 0.85 0  0.4 0.85 0  0.45 0.85 0  0.5 0.85 0  0.55 0.85 0  0.6 0.85 0  0.65 0.85 0  0.7 0.85 0  0.75 0.85 0  0.8 0.85 0  0.85 0.85 0  0.9 0.85 0  0.95 0.85 0  1 0.85 0  0 0.9 0  0.05 0.9 0  0.1 0.9 0  0.15 0.9 0  0.2 0.9 0  0.25 0.9 0  0.3 0.9 0  0.35 0.9 0  0.4 0.9 0  0.45 0.9 0  0.5 0.9 0  0.55 0.9 0  0.6 0.9 0  0.65 0.9 0  0.7 0.9 0  0.75 0.9 0  0.8 0.9 0  0.85 0.9 0  0.9 0.9 0  0.95 0.9 0  1 0.9 0  0 0.95 0  0.05 0.95 0  0.1 0.95 0  0.15 0.95 0  0.2 0.95 0  0.25 0.95 0  0.3 0.95 0  0.35 0.95 0  0.4 0.95 0  0.45 0.95 0  0.5 0.95 0  0.55 0.95 0  0.6 0.95 0  0.65 0.95 0  0.7 0.95 0  0.75 0.95 0  0.8 0.95 0  0.85 0.95 0  0.9 0.95 0  0.95 0.95 0  1 0.95 0  0 1 0  0.05 1 0  0.1 1 0  0.15 1 0  0.2 1 0  0.25 1 0  0.3 1 0  0.35 1 0  0.4 1 0  0.45 1 0  0.5 1 0  0.55 1 0  0.6 1 0  0.65 1 0  0.7 1 0  0.75 1 0  0.8 1 0  0.85 1 0  0.9 1 0  0.95 1 0  1 1 0  </DataArray>
</Points>
<Cells>
[...]
<PointData  Scalars="f_6"> 
<DataArray  type="Float64"  Name="f_6"  format="ascii">-2.0000000000000000e+00  -1.8499999999999999e+00  -1.7000000000000000e+00  -1.5500000000000000e+00  -1.4000000000000001e+00  -1.2500000000000000e+00  -1.0999999999999999e+00  -9.5000000000000007e-01  -7.9999999999999993e-01  -6.5000000000000013e-01  -5.0000000000000000e-01  -3.4999999999999987e-01  -2.0000000000000007e-01  -4.9999999999999933e-02  9.9999999999999867e-02  2.5000000000000000e-01  4.0000000000000013e-01  5.4999999999999993e-01  7.0000000000000007e-01  8.4999999999999987e-01  1.0000000000000000e+00  -2.0000000000000000e+00  -1.4993343642634174e+00  -1.2160789422204048e+00  -1.0136383616020712e+00  -8.5158806025474509e-01  -7.0955762596868421e-01  -5.7736965154793429e-01  -4.5040243211906877e-01  -3.2714185894496617e-01  -2.0831784327058933e-01  -9.4387361063403813e-02  1.3190641173009304e-02  1.1053230898260119e-01  1.8985575282043932e-01  2.7472438142117794e-01  3.7543298947504944e-01  4.9110818585365312e-01  6.1410452715184360e-01  7.4102170648528476e-01  8.7004432868308934e-01  1.0000000000000000e+00  -2.0000000000000000e+00  -1.2522853016968816e+00  -8.7480063076248060e-01  -6.2882479092537813e-01  -4.5286771040185381e-01  -3.1494187294720072e-01  -1.9699747376229357e-01  -9.0314058691940813e-02  8.4028295538722854e-03  9.8961279057981244e-02  1.7941937638813452e-01  2.5028584064200315e-01  3.1198000110399954e-01  3.5919438970659989e-01  4.1396984788003205e-01  4.8589939062536669e-01  5.7489522678771898e-01  6.7428821626843671e-01  7.7993797010620547e-01  8.8915560824707329e-01  1.0000000000000000e+00  -2.0000000000000000e+00  -1.0624519465319513e+00  -6.0831724785329400e-01  -3.3256343913451358e-01  -1.5067604334917872e-01  -1.9729409173343874e-02  8.3640675619403804e-02  1.7103670839366983e-01  2.4738324806318393e-01  3.1399999457790773e-01  3.7084998620318971e-01  4.1868540201610743e-01  4.5852676776549983e-01  4.8872325137491290e-01  5.2629936370642860e-01  5.7929949835866634e-01  6.4828511440341918e-01  7.2821514102797957e-01  8.1528634942402711e-01  9.0664013419899936e-01  1.0000000000000000e+00  -2.0000000000000000e+00  -9.1383744001047573e-01  -4.0145080857824883e-01  -1.0451270396416279e-01  7.8645996580183647e-02  2.0110291343084757e-01  2.9072324921498061e-01  3.6149163081974373e-01  4.1989854271394256e-01  4.6867466501110272e-01  5.0908426469811285e-01  5.4225913780723389e-01  5.6916539063612048e-01  5.8964370123386012e-01  6.1662762947981276e-01  6.5671412469945045e-01  7.1073059143931228e-01  7.7500088401603551e-01  8.4635215236292427e-01  9.2211857912489670e-01  1.0000000000000000e+00  -2.0000000000000000e+00  -7.9760154564182062e-01  -2.4136765287818365e-01  7.0215818800297605e-02  2.5254791217285905e-01  3.6669274063743329e-01  4.4443931165027040e-01  5.0184319874689631e-01  5.4670431573247702e-01  5.8274229122297216e-01  6.1190316380544463e-01  6.3549717131533690e-01  6.5446397521763877e-01  6.6907828808617553e-01  6.8920133442801124e-01  7.2019877952001143e-01  7.6292224263834407e-01  8.1470565123392658e-01  8.7300279688673765e-01  9.3548202993766350e-01  1.0000000000000000e+00  -2.0000000000000000e+00  -7.0702180923378377e-01  -1.1773154713062295e-01  2.0398143016836309e-01  3.8461550443430537e-01  4.9147295511912631e-01  5.5957690930065807e-01  6.0669132518016988e-01  6.4160869942496757e-01  6.6866688434819277e-01  6.9013565796846321e-01  7.0737129175524127e-01  7.2124992800074528e-01  7.3210218434494889e-01  7.4755731873598319e-01  7.7195741631423964e-01  8.0605394836012656e-01  8.4789668139458962e-01  8.9547135401243638e-01  9.4680674373901963e-01  1.0000000000000000e+00  -2.0000000000000000e+00  -6.3657533460710369e-01  -2.2273510442154577e-02  3.0654331420014613e-01  4.8528335370402087e-01  5.8614287155600930e-01  6.4671548206947449e-01  6.8610332597118395e-01  7.1381083042174298e-01  7.3454352603591511e-01  7.5070795170614335e-01  7.6363468885196906e-01  7.7410836193453414e-01  7.8241059733333429e-01  7.9454530537398227e-01  8.1401961864083794e-01  8.4143945309333312e-01  8.7535577197186898e-01  9.1417919402939929e-01  9.5627359100597931e-01  1.0000000000000000e+00  -2.0000000000000000e+00  -5.8177881551281185e-01  5.1536200669109022e-02  3.8543172111051549e-01  5.6241800633553696e-01  6.5852810178401466e-01  7.1335605097810229e-01  7.4701796388174024e-01  7.6951451492325262e-01  7.8576415190757554e-01  7.9821712063912986e-01  8.0814868962676878e-01  8.1625074270144915e-01  8.2274399572324508e-01  8.3242765875854763e-01  8.4813629978179617e-01  8.7032847340049924e-01  8.9790775937015432e-01  9.2961605912731260e-01  9.6410842625549809e-01  1.0000000000000000e+00  -2.0000000000000000e+00  -5.3907379928796417e-01  1.0876953089236456e-01  4.4636850977774728e-01  6.2187129634893512e-01  7.1430924728318657e-01  7.6481365453624728e-01  7.9425475064820050e-01  8.1297482289157319e-01  8.2601358920946411e-01  8.3582222710413401e-01  8.4361585971591480e-01  8.5000761403799996e-01  8.5517088786663242e-01  8.6299271267985966e-01  8.7576944832730019e-01  8.9383038135671311e-01  9.1633073298093692e-01  9.4226885685419937e-01  9.7054405488870032e-01  1.0000000000000000e+00  -2.0000000000000000e+00  -5.0568958151751575e-01  1.5330865235495333e-01  4.9365332383888844e-01  6.6796173623901633e-01  7.5760019943795087e-01  8.0487167928706793e-01  8.3120176525951939e-01  8.4716729527674739e-01  8.5787650719217223e-01  8.6576489074655394e-01  8.7199432094538742e-01  8.7711726020428349e-01  8.8127632192182503e-01  8.8765440283300368e-01  8.9811839949083194e-01  9.1289287071811676e-01  9.3131593434268134e-01  9.5258458041984728e-01  9.7579893644510407e-01  1.0000000000000000e+00  -2.0000000000000000e+00  -4.7950006050406552e-01  1.8809065260642635e-01  5.3049162792109716e-01  7.0386375435376169e-01  7.9138471211572148e-01  8.3624437733303147e-01  8.6027495410095411e-01  8.7421489577155220e-01  8.8321137321991516e-01  8.8968039219546313e-01  8.9474132194366063e-01  8.9890254985533014e-01  9.0228913571011404e-01  9.0753235836553403e-01  9.1615687608490792e-01  9.2830676768224074e-01  9.4345555325182529e-01  9.6095459403740502e-01  9.8006711047186845e-01  1.0000000000000000e+00  -2.0000000000000000e+00  -4.5889226647829545e-01  2.1531614534217508e-01  5.5925879740966833e-01  7.3190726473980083e-01  8.1783510813979887e-01  8.6089743426050958e-01  8.8322260226152760e-01  8.9566138215702651e-01  9.0338384935137572e-01  9.0878844351704213e-01  9.1296272865425787e-01  9.1638427602556982e-01  9.1916973045446559e-01  9.2351418625611992e-01  9.3066997880102520e-01  9.4072177067411300e-01  9.5324491694497371e-01  9.6771113200607883e-01  9.8351491140496505e-01  1.0000000000000000e+00  -2.0000000000000000e+00  -4.4265677779542562e-01  2.3661583994414961e-01  5.8170353742499181e-01  7.5380055140672098e-01  8.3854000136282714e-01  8.8026792797270115e-01  9.0132710549289508e-01  9.1264778870070773e-01  9.1941496402311507e-01  9.2401362028669864e-01  9.2750869548961978e-01  9.3035684355518200e-01  9.3267208482495190e-01  9.3630339050520006e-01  9.4228708218895918e-01  9.5066541926821291e-01  9.6109121184787893e-01  9.7313010563697189e-01  9.8628140314191259e-01  1.0000000000000000e+00  -2.0000000000000000e+00  -4.2990528772426101e-01  2.5317459152817390e-01  5.9909866928422251e-01  7.7079245121578044e-01  8.5466513649242770e-01  8.9541480845724120e-01  9.1553930769470793e-01  9.2602773278515327e-01  9.3207709500008606e-01  9.3606370524922156e-01  9.3903725282103823e-01  9.4144060101110072e-01  9.4338853401298362e-01  9.4645615773496827e-01  9.5150954018139899e-01  9.5856161236189996e-01  9.6732440554135746e-01  9.7743667555201796e-01  9.8848059552571355e-01  1.0000000000000000e+00  -2.0000000000000000e+00  -4.2001941186840364e-01  2.6581573786290746e-01  6.1235007779405148e-01  7.8378979364351131e-01  8.6706707911271708e-01  9.0712228717082322e-01  9.2656871939040975e-01  9.3644382322516362e-01  9.4195743930321929e-01  9.4548206442347693e-01  9.4805789696269582e-01  9.5011900444695518e-01  9.5178265537478646e-01  9.5440959026123806e-01  9.5873330843976867e-01  9.6474708445663104e-01  9.7220812240363386e-01  9.8081159550402930e-01  9.9020430340892363e-01  1.0000000000000000e+00  -2.0000000000000000e+00  -4.1263430463540079e-01  2.7505434448180438e-01  6.2207889984796405e-01  7.9344588984826514e-01  8.7637542929997359e-01  9.1597182435643931e-01  9.3494480227649190e-01  9.4437897760616207e-01  9.4950068825145129e-01  9.5268334362460494e-01  9.5496206095645408e-01  9.5676544516014506e-01  9.5821367994798656e-01  9.6050334251832747e-01  9.6426701885980681e-01  9.6948529462122146e-01  9.7594940411251763e-01  9.8339728065154197e-01  9.9152502260595188e-01  1.0000000000000000e+00  -2.0000000000000000e+00  -4.0763657003050968e-01  2.8115222433845694e-01  6.2870306339977033e-01  8.0023673074944890e-01  8.8305565603753811e-01  9.2239329878923215e-01  9.4105902500005423e-01  9.5019117666227004e-01  9.5503790833036606e-01  9.5797784274710951e-01  9.6004435636717655e-01  9.6166259910053142e-01  9.6295470992421062e-01  9.6499613113042715e-01  9.6834612985991009e-01  9.7297767105593103e-01  9.7870691877367377e-01  9.8530310038366864e-01  9.9249850636334225e-01  1.0000000000000000e+00  -2.0000000000000000e+00  -4.0495257847733179e-01  2.8429210753837797e-01  6.3256405099218571e-01  8.0454031072678889e-01  8.8745983710279142e-01  9.2670149831934234e-01  9.4519361494644416e-01  9.5413697379038920e-01  9.5880593297089289e-01  9.6158763965196270e-01  9.6351649919641991e-01  9.6501566711440689e-01  9.6620648494134109e-01  9.6807824811563814e-01  9.7114369839347570e-01  9.7537234096891945e-01  9.8059749954257802e-01  9.8660969574611679e-01  9.9316590246374903e-01  1.0000000000000000e+00  -2.0000000000000000e+00  -4.0259767984086758e-01  2.8516469211617640e-01  6.3413811879249360e-01  8.0671615122781637e-01  8.8986274938849763e-01  9.2911937674250711e-01  9.4754026160831561e-01  9.5638732861977938e-01  9.6096041140168631e-01  9.6365654095815245e-01  9.6551419440651909e-01  9.6695844917441343e-01  9.6810893451368185e-01  9.6988090569435015e-01  9.7277807462943522e-01  9.7677049488369372e-01  9.8170104268160197e-01  9.8737228059447224e-01  9.9355540774553697e-01  1.0000000000000000e+00  -2.0000000000000000e+00  -3.8385735571411617e-01  2.8582821448280854e-01  6.3415008096247916e-01  8.0711756745990271e-01  8.9046466654817769e-01  9.2978542013860843e-01  9.4821044208318073e-01  9.5703865267967581e-01  9.6158606234373023e-01  9.6425731530058134e-01  9.6609689719519642e-01  9.6754224177727488e-01  9.6875726377976168e-01  9.7048212767119746e-01  9.7331719954622165e-01  9.7723052125481824e-01  9.8206389570566399e-01  9.8762297620463402e-01  9.9368344792392738e-01  1.0000000000000000e+00  </DataArray> 
</PointData> 
</Piece>
</UnstructuredGrid>
</VTKFile>