<?xml version="1.0"?>
<VTKFile type="UnstructuredGrid"  version="0.1"  >
<UnstructuredGrid>
<Piece  NumberOfPoints="4225" NumberOfCells="8192">
<Points>
<DataArray  type="Float64"  NumberOfComponents="3"  format="ascii">0 0 0  0.015625 0 0  0.03125 0 0  0.046875 0 0  0.0625 0 0  0.078125 0 0  0.09375 0 0  0.109375 0 0  0.125 0 0  0.140625 0 0  0.15625 0 0  0.171875 0 0  0.1875 0 0  0.203125 0 0  0.21875 0 0  0.234375 0 0  0.25 0 0  0.265625 0 0  0.28125 0 0  0.296875 0 0  0.3125 0 0  0.328125 0 0  0.34375 0 0  0.359375 0 0  0.375 0 0  0.390625 0 0  0.40625 0 0  0.421875 0 0  0.4375 0 0  0.453125 0 0  0.46875 0 0  0.484375 0 0  0.5 0 0  0.515625 0 0  0.53125 0 0  0.546875 0 0  0.5625 0 0  0.578125 0 0  0.59375 0 0  0.609375 0 0  0.625 0 0  0.640625 0 0  0.65625 0 0  0.671875 0 0  0.6875 0 0  0.703125 0 0  0.71875 0 0  0.734375 0 0  0.75 0 0  0.765625 0 0  0.78125 0 0  0.796875 0 0  0.8125 0 0  0.828125 0 0  0.84375 0 0  0.859375 0 0  0.875 0 0  0.890625 0 0  0.90625 0 0  0.921875 0 0  0.9375 0 0  0.953125 0 0  0.96875 0 0  0.984375 0 0  1 0 0  0 0.015625 0  0.015625 0.015625 0  0.03125 0.015625 0  0.046875 0.015625 0  0.0625 0.015625 0  0.078125 0.015625 0  0.09375 0.015625 0  0.109375 0.015625 0  0.125 0.015625 0  0.140625 0.015625 0  0.15625 0.015625 0  0.171875 0.015625 0  0.1875 0.015625 0  0.203125 0.015625 0  0.21875 0.015625 0  0.234375 0.015625 0  0.25 0.015625 0  0.265625 0.015625 0  0.28125 0.015625 0  0.296875 0.015625 0  0.3125 0.015625 0  0.328125 0.015625 0  0.34375 0.015625 0  0.359375 0.015625 0  0.375 0.015625 0  0.390625 0.015625 0  0.40625 0.015625 0  0.421875 0.015625 0  0.4375 0.015625 0  0.453125 0.015625 0  0.46875 0.015625 0  0.484375 0.015625 0  0.5 0.015625 0  0.515625 0.015625 0  0.53125 0.015625 0  0.546875 0.015625 0  0.5625 0.015625 0  0.578125 0.015625 0  0.59375 0.015625 0  0.609375 0.015625 0  0.625 0.015625 0  0.640625 0.015625 0  0.65625 0.015625 0  0.671875 0.015625 0  0.6875 0.015625 0  0.703125 0.015625 0  0.71875 0.015625 0  0.734375 0.015625 0  0.75 0.015625 0  0.765625 0.015625 0  0.78125 0.015625 0  0.796875 0.015625 0  0.8125 0.015625 0  0.828125 0.015625 0  0.84375 0.015625 0  0.859375 0.015625 0  0.875 0.015625 0  0.890625 0.015625 0  0.90625 0.015625 0  0.921875 0.015625 0  0.9375 0.015625 0  0.953125 0.015625 0  0.96875 0.015625 0  0.984375 0.015625 0  1 0.015625 0  0 0.03125 0  0.015625 0.03125 0  0.03125 0.03125 0  0.046875 0.03125 0  0.0625 0.03125 0  0.078125 0.03125 0  0.09375 0.03125 0  0.109375 0.03125 0  0.125 0.03125 0  0.140625 0.03125 0  0.15625 0.03125 0  0.171875 0.03125 0  0.1875 0.03125 0  0.203125 0.03125 0  0.21875 0.03125 0  0.234375 0.03125 0  0.25 0.03125 0  0.265625 0.03125 0  0.28125 0.03125 0  0.296875 0.03125 0  0.3125 0.03125 0  0.328125 0.03125 0  0.34375 0.03125 0  0.359375 0.03125 0  0.375 0.03125 0  0.390625 0.03125 0  0.40625 0.03125 0  0.421875 0.03125 0  0.4375 0.03125 0  0.453125 0.03125 0  0.46875 0.03125 0  0.484375 0.03125 0  0.5 0.03125 0  0.515625 0.03125 0  0.53125 0.03125 0  0.546875 0.03125 0  0.5625 0.03125 0  0.578125 0.03125 0  0.59375 0.03125 0  0.609375 0.03125 0  0.625 0.03125 0  0.640625 0.03125 0  0.65625 0.03125 0  0.671875 0.03125 0  0.6875 0.03125 0  0.703125 0.03125 0  0.71875 0.03125 0  0.734375 0.03125 0  0.75 0.03125 0  0.765625 0.03125 0  0.78125 0.03125 0  0.796875 0.03125 0  0.8125 0.03125 0  0.828125 0.03125 0  0.84375 0.03125 0  0.859375 0.03125 0  0.875 0.03125 0  0.890625 0.03125 0  0.90625 0.03125 0  0.921875 0.03125 0  0.9375 0.03125 0  0.953125 0.03125 0  0.96875 0.03125 0  0.984375 0.03125 0  1 0.03125 0  0 0.046875 0  0.015625 0.046875 0  0.03125 0.046875 0  0.046875 0.046875 0  0.0625 0.046875 0  0.078125 0.046875 0  0.09375 0.046875 0  0.109375 0.046875 0  0.125 0.046875 0  0.140625 0.046875 0  0.15625 0.046875 0  0.171875 0.046875 0  0.1875 0.046875 0  0.203125 0.046875 0  0.21875 0.046875 0  0.234375 0.046875 0  0.25 0.046875 0  0.265625 0.046875 0  0.28125 0.046875 0  0.296875 0.046875 0  0.3125 0.046875 0  0.328125 0.046875 0  0.34375 0.046875 0  0.359375 0.046875 0  0.375 0.046875 0  0.390625 0.046875 0  0.40625 0.046875 0  0.421875 0.046875 0  0.4375 0.046875 0  0.453125 0.046875 0  0.46875 0.046875 0  0.484375 0.046875 0  0.5 0.046875 0  0.515625 0.046875 0  0.53125 0.046875 0  0.546875 0.046875 0  0.5625 0.046875 0  0.578125 0.046875 0  0.59375 0.046875 0  0.609375 0.046875 0  0.625 0.046875 0  0.640625 0.046875 0  0.65625 0.046875 0  0.671875 0.046875 0  0.6875 0.046875 0  0.703125 0.046875 0  0.71875 0.046875 0  0.734375 0.046875 0  0.75 0.046875 0  0.765625 0.046875 0  0.78125 0.046875 0  0.796875 0.046875 0  0.8125 0.046875 0  0.828125 0.046875 0  0.84375 0.046875 0  0.859375 0.046875 0  0.875 0.046875 0  0.890625 0.046875 0  0.90625 0.046875 0  0.921875 0.046875 0  0.9375 0.046875 0  0.953125 0.046875 0  0.96875 0.046875 0  0.984375 0.046875 0  1 0.046875 0  0 0.0625 0  0.015625 0.0625 0  0.03125 0.0625 0  0.046875 0.0625 0  0.0625 0.0625 0  0.078125 0.0625 0  0.09375 0.0625 0  0.109375 0.0625 0  0.125 0.0625 0  0.140625 0.0625 0  0.15625 0.0625 0  0.171875 0.0625 0  0.1875 0.0625 0  0.203125 0.0625 0  0.21875 0.0625 0  0.234375 0.0625 0  0.25 0.0625 0  0.265625 0.0625 0  0.28125 0.0625 0  0.296875 0.0625 0  0.3125 0.0625 0  0.328125 0.0625 0  0.34375 0.0625 0  0.359375 0.0625 0  0.375 0.0625 0  0.390625 0.0625 0  0.40625 0.0625 0  0.421875 0.0625 0  0.4375 0.0625 0  0.453125 0.0625 0  0.46875 0.0625 0  0.484375 0.0625 0  0.5 0.0625 0  0.515625 0.0625 0  0.53125 0.0625 0  0.546875 0.0625 0  0.5625 0.0625 0  0.578125 0.0625 0  0.59375 0.0625 0  0.609375 0.0625 0  0.625 0.0625 0  0.640625 0.0625 0  0.65625 0.0625 0  0.671875 0.0625 0  0.6875 0.0625 0  0.703125 0.0625 0  0.71875 0.0625 0  0.734375 0.0625 0  0.75 0.0625 0  0.765625 0.0625 0  0.78125 0.0625 0  0.796875 0.0625 0  0.8125 0.0625 0  0.828125 0.0625 0  0.84375 0.0625 0  0.859375 0.0625 0  0.875 0.0625 0  0.890625 0.0625 0  0.90625 0.0625 0  0.921875 0.0625 0  0.9375 0.0625 0  0.953125 0.0625 0  0.96875 0.0625 0  0.984375 0.0625 0  1 0.0625 0  0 0.078125 0  0.015625 0.078125 0  0.03125 0.078125 0  0.046875 0.078125 0  0.0625 0.078125 0  0.078125 0.078125 0  0.09375 0.078125 0  0.109375 0.078125 0  0.125 0.078125 0  0.140625 0.078125 0  0.15625 0.078125 0  0.171875 0.078125 0  0.1875 0.078125 0  0.203125 0.078125 0  0.21875 0.078125 0  0.234375 0.078125 0  0.25 0.078125 0  0.265625 0.078125 0  0.28125 0.078125 0  0.296875 0.078125 0  0.3125 0.078125 0  0.328125 0.078125 0  0.34375 0.078125 0  0.359375 0.078125 0  0.375 0.078125 0  0.390625 0.078125 0  0.40625 0.078125 0  0.421875 0.078125 0  0.4375 0.078125 0  0.453125 0.078125 0  0.46875 0.078125 0  0.484375 0.078125 0  0.5 0.078125 0  0.515625 0.078125 0  0.53125 0.078125 0  0.546875 0.078125 0  0.5625 0.078125 0  0.578125 0.078125 0  0.59375 0.078125 0  0.609375 0.078125 0  0.625 0.078125 0  0.640625 0.078125 0  0.65625 0.078125 0  0.671875 0.078125 0  0.6875 0.078125 0  0.703125 0.078125 0  0.71875 0.078125 0  0.734375 0.078125 0  0.75 0.078125 0  0.765625 0.078125 0  0.78125 0.078125 0  0.796875 0.078125 0  0.8125 0.078125 0  0.828125 0.078125 0  0.84375 0.078125 0  0.859375 0.078125 0  0.875 0.078125 0  0.890625 0.078125 0  0.90625 0.078125 0  0.921875 0.078125 0  0.9375 0.078125 0  0.953125 0.078125 0  0.96875 0.078125 0  0.984375 0.078125 0  1 0.078125 0  0 0.09375 0  0.015625 0.09375 0  0.03125 0.09375 0  0.046875 0.09375 0  0.0625 0.09375 0  0.078125 0.09375 0  0.09375 0.09375 0  0.109375 0.09375 0  0.125 0.09375 0  0.140625 0.09375 0  0.15625 0.09375 0  0.171875 0.09375 0  0.1875 0.09375 0  0.203125 0.09375 0  0.21875 0.09375 0  0.234375 0.09375 0  0.25 0.09375 0  0.265625 0.09375 0  0.28125 0.09375 0  0.296875 0.09375 0  0.3125 0.09375 0  0.328125 0.09375 0  0.34375 0.09375 0  0.359375 0.09375 0  0.375 0.09375 0  0.390625 0.09375 0  0.40625 0.09375 0  0.421875 0.09375 0  0.4375 0.09375 0  0.453125 0.09375 0  0.46875 0.09375 0  0.484375 0.09375 0  0.5 0.09375 0  0.515625 0.09375 0  0.53125 0.09375 0  0.546875 0.09375 0  0.5625 0.09375 0  0.578125 0.09375 0  0.59375 0.09375 0  0.609375 0.09375 0  0.625 0.09375 0  0.640625 0.09375 0  0.65625 0.09375 0  0.671875 0.09375 0  0.6875 0.09375 0  0.703125 0.09375 0  0.71875 0.09375 0  0.734375 0.09375 0  0.75 0.09375 0  0.765625 0.09375 0  0.78125 0.09375 0  0.796875 0.09375 0  0.8125 0.09375 0  0.828125 0.09375 0  0.84375 0.09375 0  0.859375 0.09375 0  0.875 0.09375 0  0.890625 0.09375 0  0.90625 0.09375 0  0.921875 0.09375 0  0.9375 0.09375 0  0.953125 0.09375 0  0.96875 0.09375 0  0.984375 0.09375 0  1 0.09375 0  0 0.109375 0  0.015625 0.109375 0  0.03125 0.109375 0  0.046875 0.109375 0  0.0625 0.109375 0  0.078125 0.109375 0  0.09375 0.109375 0  0.109375 0.109375 0  0.125 0.109375 0  0.140625 0.109375 0  0.15625 0.109375 0  0.171875 0.109375 0  0.1875 0.109375 0  0.203125 0.109375 0  0.21875 0.109375 0  0.234375 0.109375 0  0.25 0.109375 0  0.265625 0.109375 0  0.28125 0.109375 0  0.296875 0.109375 0  0.3125 0.109375 0  0.328125 0.109375 0  0.34375 0.109375 0  0.359375 0.109375 0  0.375 0.109375 0  0.390625 0.109375 0  0.40625 0.109375 0  0.421875 0.109375 0  0.4375 0.109375 0  0.453125 0.109375 0  0.46875 0.109375 0  0.484375 0.109375 0  0.5 0.109375 0  0.515625 0.109375 0  0.53125 0.109375 0  0.546875 0.109375 0  0.5625 0.109375 0  0.578125 0.109375 0  0.59375 0.109375 0  0.609375 0.109375 0  0.625 0.109375 0  0.640625 0.109375 0  0.65625 0.109375 0  0.671875 0.109375 0  0.6875 0.109375 0  0.703125 0.109375 0  0.71875 0.109375 0  0.734375 0.109375 0  0.75 0.109375 0  0.765625 0.109375 0  0.78125 0.109375 0  0.796875 0.109375 0  0.8125 0.109375 0  0.828125 0.109375 0  0.84375 0.109375 0  0.859375 0.109375 0  0.875 0.109375 0  0.890625 0.109375 0  0.90625 0.109375 0  0.921875 0.109375 0  0.9375 0.109375 0  0.953125 0.109375 0  0.96875 0.109375 0  0.984375 0.109375 0  1 0.109375 0  0 0.125 0  0.015625 0.125 0  0.03125 0.125 0  0.046875 0.125 0  0.0625 0.125 0  0.078125 0.125 0  0.09375 0.125 0  0.109375 0.125 0  0.125 0.12
[...]
<PointData  Scalars="f_6"> 
<DataArray  type="Float64"  Name="f_6"  format="ascii">-2.0000000000000000e+00  -1.9531250000000000e+00  -1.9062500000000000e+00  -1.8593750000000000e+00  -1.8125000000000000e+00  -1.7656250000000000e+00  -1.7187500000000000e+00  -1.6718750000000000e+00  -1.6250000000000000e+00  -1.5781250000000000e+00  -1.5312500000000000e+00  -1.4843750000000000e+00  -1.4375000000000000e+00  -1.3906250000000000e+00  -1.3437500000000000e+00  -1.2968750000000000e+00  -1.2500000000000000e+00  -1.2031250000000000e+00  -1.1562500000000000e+00  -1.1093750000000000e+00  -1.0625000000000000e+00  -1.0156250000000000e+00  -9.6875000000000000e-01  -9.2187500000000000e-01  -8.7500000000000000e-01  -8.2812500000000000e-01  -7.8125000000000000e-01  -7.3437500000000000e-01  -6.8750000000000000e-01  -6.4062500000000000e-01  -5.9375000000000000e-01  -5.4687500000000000e-01  -5.0000000000000000e-01  -4.5312500000000006e-01  -4.0625000000000000e-01  -3.5937500000000000e-01  -3.1250000000000000e-01  -2.6562500000000000e-01  -2.1875000000000000e-01  -1.7187500000000000e-01  -1.2500000000000000e-01  -7.8125000000000000e-02  -3.1250000000000000e-02  1.5625000000000000e-02  6.2500000000000000e-02  1.0937500000000000e-01  1.5625000000000000e-01  2.0312500000000000e-01  2.5000000000000000e-01  2.9687500000000000e-01  3.4375000000000000e-01  3.9062500000000000e-01  4.3750000000000000e-01  4.8437500000000000e-01  5.3125000000000000e-01  5.7812500000000000e-01  6.2500000000000000e-01  6.7187500000000000e-01  7.1875000000000000e-01  7.6562500000000000e-01  8.1250000000000000e-01  8.5937500000000000e-01  9.0625000000000000e-01  9.5312500000000000e-01  1.0000000000000000e+00  -2.0000000000000000e+00  -1.9132717437585631e+00  -1.8332349530742118e+00  -1.7584628060657586e+00  -1.6880332600040158e+00  -1.6212764720374784e+00  -1.5576728398245452e+00  -1.4968036731611074e+00  -1.4383234906009612e+00  -1.3819426106368944e+00  -1.3274152909049508e+00  -1.2745311708250837e+00  -1.2231088408281028e+00  -1.1729908654522758e+00  -1.1240398471452053e+00  -1.0761352615578479e+00  -1.0291708802782134e+00  -9.8305265026449684e-01  -9.3769693434370294e-01  -8.9302904139476336e-01  -8.4898199246430750e-01  -8.0549548268864335e-01  -7.6251501028589597e-01  -7.1999115438256989e-01  -6.7787899434950949e-01  -6.3613767649779374e-01  -5.9473015271785190e-01  -5.5362314482665431e-01  -5.1278742990719983e-01  -4.7219857570755408e-01  -4.3183819151345082e-01  -3.9169536550748768e-01  -3.5176689648090370e-01  -3.1205363903599004e-01  -2.7255355014477184e-01  -2.3327068757221484e-01  -1.9426688603509173e-01  -1.5564956127446172e-01  -1.1735344151138201e-01  -7.9135927157867075e-02  -4.4581009468202135e-02  -1.1929397467441578e-02  2.1762072685535018e-02  5.7385057340897432e-02  9.6133377919778565e-02  1.3800961328319566e-01  1.8130771480167493e-01  2.2537322417790281e-01  2.6991171589230828e-01  3.1477042713973358e-01  3.5986040267655295e-01  4.0512504751520872e-01  4.5052584729052053e-01  4.9603518847267358e-01  5.4163242942265899e-01  5.8730159677523064e-01  6.3302995642280058e-01  6.7880708447520910e-01  7.2462423852948432e-01  7.7047391670749432e-01  8.1634953788861742e-01  8.6224520202580468e-01  9.0815550410702295e-01  9.5407538403944769e-01  1.0000000000000000e+00  -2.0000000000000000e+00  -1.8765487546575852e+00  -1.7679243039008632e+00  -1.6707167287495976e+00  -1.5825761147639386e+00  -1.5018040206009897e+00  -1.4271256326281483e+00  -1.3575560974081531e+00  -1.2923174249917138e+00  -1.2307840824685730e+00  -1.1724458131816857e+00  -1.1168813338943155e+00  -1.0637392003111452e+00  -1.0127235660081415e+00  -9.6358338070899330e-01  -9.1610406545704837e-01  -8.7010100861703665e-01  -8.2541442431472400e-01  -7.8190524641509285e-01  -7.3945182112760788e-01  -6.9794722474665849e-01  -6.5729707933280901e-01  -6.1741777457231473e-01  -5.7823503296623879e-01  -5.3968278118940571e-01  -5.0170231623572437e-01  -4.6424178629949225e-01  -4.2725605433522235e-01  -3.9070709525747538e-01  -3.5456520860691398e-01  -3.1881145544938150e-01  -2.8344155593310671e-01  -2.4847002390021369e-01  -2.1392838714614734e-01  -1.7984513815161959e-01  -1.4623196040999975e-01  -1.1324373964534699e-01  -8.1393899630744629e-02  -5.0934079385282452e-02  -2.3026638714905193e-02  3.0222929973642170e-03  2.9784069495160506e-02  5.8753734230240454e-02  9.0820064361491343e-02  1.2663884105502116e-01  1.6522236041132923e-01  2.0559802174560124e-01  2.4714846601762808e-01  2.8950321225159703e-01  3.3243458999007308e-01  3.7579613605126949e-01  4.1948894009376131e-01  4.6344315317419982e-01  5.0760747717751553e-01  5.5194293244273118e-01  5.9641900125546332e-01  6.4101114444076290e-01  6.8569914294855094e-01  7.3046595293523442e-01  7.7529689041187555e-01  8.2017903282117099e-01  8.6510076610757869e-01  9.1005143036283875e-01  9.5502103205076794e-01  1.0000000000000000e+00  -2.0000000000000000e+00  -1.8423640705073356e+00  -1.7089829461581187e+00  -1.5935591653217533e+00  -1.4918768401266831e+00  -1.4009913553690407e+00  -1.3187714640908430e+00  -1.2436284610812558e+00  -1.1743487986033239e+00  -1.1099864047508530e+00  -1.0497909207523632e+00  -9.9315838945606871e-01  -9.3959646416977982e-01  -8.8869929547360615e-01  -8.4012904126186994e-01  -7.9360201614887027e-01  -7.4887815828097859e-01  -7.0575291248894723e-01  -6.6405090336821471e-01  -6.2362095553301800e-01  -5.8433214420381685e-01  -5.4607064817211370e-01  -5.0873724243539076e-01  -4.7224531833278893e-01  -4.3651936078840453e-01  -4.0149384935240368e-01  -3.6711258692042187e-01  -3.3332851039034400e-01  -3.0010413776329448e-01  -2.6741303521196169e-01  -2.3524317014961824e-01  -2.0360385502621015e-01  -1.7253870985396980e-01  -1.4214226541383940e-01  -1.1253590362349560e-01  -8.3717896511518591e-02  -5.5709767723065601e-02  -3.0675986233860222e-02  -7.7938262741402689e-03  1.4423773666260034e-02  3.6867799206373439e-02  6.1499672867371319e-02  8.9508608369144205e-02  1.2050262481980632e-01  1.5437956152748550e-01  1.9064296556149873e-01  2.2871354575177277e-01  2.6811940589541122e-01  3.0851807710637863e-01  3.4966858451769245e-01  3.9140061144469079e-01  4.3359142363436731e-01  4.7615034813500190e-01  5.1900863462045799e-01  5.6211282191528700e-01  6.0542033136312867e-01  6.4889647713623688e-01  6.9251238994299780e-01  7.3624353985102664e-01  7.8006865918360258e-01  8.2396893687661232e-01  8.6792739922050033e-01  9.1192841918598566e-01  9.5595731380078508e-01  1.0000000000000000e+00  -2.0000000000000000e+00  -1.8104075001474338e+00  -1.6554681985403135e+00  -1.5251176130818638e+00  -1.4129391913872331e+00  -1.3146282769843352e+00  -1.2271758672180226e+00  -1.1484065809143409e+00  -1.0767031318756510e+00  -1.0108346222758495e+00  -9.4984542421564033e-01  -8.9298089403531400e-01  -8.3963629062636125e-01  -7.8932077671566048e-01  -7.4163149911030724e-01  -6.9623457151881074e-01  -6.5285088975077332e-01  -6.1124539807798106e-01  -5.7121886601693517e-01  -5.3260152335644828e-01  -4.9524809495492428e-01  -4.5903391051971881e-01  -4.2385186042391737e-01  -3.8961004131187343e-01  -3.5622999441569836e-01  -3.2364549001778609e-01  -2.9180185378031998e-01  -2.6065586796377366e-01  -2.3017634589226860e-01  -2.0034568862353266e-01  -1.7116337484430780e-01  -1.4265414220003556e-01  -1.1488914562392172e-01  -8.8052787065241972e-02  -6.2570686291843286e-02  -3.8549085220468196e-02  -1.6774836025279870e-02  3.0978538297182184e-03  2.2723927539075539e-02  4.3104434613307159e-02  6.5127921368465028e-02  8.9838214398807154e-02  1.1727840155915864e-01  1.4730226502110425e-01  1.7973381467361585e-01  2.1425639455540754e-01  2.5049378980457987e-01  2.8809753470586530e-01  3.2678110576081354e-01  3.6632105952962746e-01  4.0654630157543376e-01  4.4732579486401497e-01  4.8855818111098259e-01  5.3016389125402730e-01  5.7207938923482937e-01  6.1425302514552760e-01  6.5664204279805782e-01  6.9921039983617683e-01  7.4192715734227199e-01  7.8476526959489568e-01  8.2770065628117551e-01  8.7071147471182475e-01  9.1377753335981848e-01  9.5687980396638628e-01  1.0000000000000000e+00  -2.0000000000000000e+00  -1.7804818647236988e+00  -1.6066753256598261e+00  -1.4639900907020154e+00  -1.3435829974908180e+00  -1.2397493530597874e+00  -1.1486257572024741e+00  -1.0674918197762515e+00  -9.9436992158394844e-01  -9.2778377535064971e-01  -8.6660644658925889e-01  -8.0996117539299328e-01  -7.5715462361187735e-01  -7.0763072903456536e-01  -6.6093805421763030e-01  -6.1670620970284606e-01  -5.7462852563741751e-01  -5.3444911946728291e-01  -4.9595311873991915e-01  -4.5895919188939904e-01  -4.2331379997808349e-01  -3.8888675896984487e-01  -3.5556782682606253e-01  -3.2326412401546173e-01  -2.9189827547205477e-01  -2.6140723591977638e-01  -2.3174182623789977e-01  -2.0286704894985982e-01  -1.7476326512726092e-01  -1.4742841454209960e-01  -1.2088194911890418e-01  -9.5172433064279707e-02  -7.0394900143741709e-02  -4.6678616501726881e-02  -2.5717533837850904e-02  -6.8029017834819773e-03  1.1133926508033003e-02  2.8773827937903285e-02  4.7485692701779214e-02  6.8146322691863520e-02  9.0701237255372366e-02  1.1544686180023363e-01  1.4246451844757899e-01  1.7169421903183632e-01  2.0299703759046606e-01  2.3615500818193577e-01  2.7090768420527384e-01  3.0699583736265640e-01  3.4418775170138272e-01  3.8228824626457020e-01  4.2113774046340191e-01  4.6060727313527616e-01  5.0059269019088615e-01  5.4100936004983935e-01  5.8178781862447582e-01  6.2287033718609386e-01  6.6420826907429009e-01  7.0576000926137983e-01  7.4748942008698871e-01  7.8936460557253263e-01  8.3135694394136939e-01  8.7344030998580491e-01  9.1559043557507747e-01  9.5778436870494188e-01  1.0000000000000000e+00  -2.0000000000000000e+00  -1.7524423291951843e+00  -1.5620520090302850e+00  -1.4090971661265737e+00  -1.2821769558260896e+00  -1.1741969611355281e+00  -1.0804862419800592e+00  -9.9782991853949643e-01  -9.2393464961412053e-01  -8.5711560945098431e-01  -7.9610423068527236e-01  -7.3992532736480932e-01  -6.8781586615717838e-01  -6.3916969355680897e-01  -5.9349897332812462e-01  -5.5040669312225898e-01  -5.0956669236521801e-01  -4.7070892004814091e-01  -4.3360840814349411e-01  -3.9807694023741202e-01  -3.6395671711743638e-01  -3.3111553713580194e-01  -2.9944315999365101e-01  -2.6884863682834143e-01  -2.3925849214927114e-01  -2.1061575848603895e-01  -1.8288000442309635e-01  -1.5602863139098758e-01  -1.3005979522307698e-01  -1.0499753857731937e-01  -8.0901179171227633e-02  -5.7886094618989400e-02  -3.6175573459000972e-02  -1.6887894449057656e-02  2.2994697635819871e-04  1.6716144131171146e-02  3.3445873640645135e-02  5.1043587167074106e-02  7.0298692638274513e-02  9.1293926196995279e-02  1.1408384316092725e-01  1.3878347709917607e-01  1.6543859139908743e-01  1.9401305506819602e-01  2.2440510847447614e-01  2.5645891637659557e-01  2.8998610147192344e-01  3.2479037883810358e-01  3.6068581741749089e-01  3.9750643336386893e-01  4.3510914087832753e-01  4.7337286702280157e-01  5.1219594646744637e-01  5.5149304012996869e-01  5.9119218802714035e-01  6.3123223590008215e-01  6.7156068705162841e-01  7.1213194804806434e-01  7.5290590817176972e-01  7.9384678866687663e-01  8.3492220392596395e-01  8.7610238571494825e-01  9.1735953024974415e-01  9.5866723527830411e-01  1.0000000000000000e+00  -2.0000000000000000e+00  -1.7261716648447083e+00  -1.5211501283098900e+00  -1.3595877320288221e+00  -1.2274706878357058e+00  -1.1163577497936563e+00  -1.0208282840152414e+00  -9.3722454830858593e-01  -8.6297901906580909e-01  -7.9623061140169382e-01  -7.3559395198918076e-01  -6.8001452866483703e-01  -6.2867438326009462e-01  -5.8092878054700725e-01  -5.3626253405708979e-01  -4.9425919122448775e-01  -4.5457886169911893e-01  -4.1694199972211915e-01  -3.8111738400751233e-01  -3.4691312500441884e-01  -3.1416990870623757e-01  -2.8275593874108329e-01  -2.5256321315385766e-01  -2.2350490351891494e-01  -1.9551372825324514e-01  -1.6854138644846328e-01  -1.4255942308988245e-01  -1.1756236136571424e-01  -9.3574460735782225e-02  -7.0662651219128403e-02  -4.8962129392398558e-02  -2.8784420630099759e-02  -1.0825879899570746e-02  5.2431317109531512e-03  2.0513089669500564e-02  3.6308808993861581e-02  5.3380157401816064e-02  7.1655954451473519e-02  9.1371564487249493e-02  1.1264684629691593e-01  1.3555673209216532e-01  1.6016461203645599e-01  1.8649331498139857e-01  2.1451430136738428e-01  2.4415142486264699e-01  2.7528944737804689e-01  3.0778742646772062e-01  3.4149375910034380e-01  3.7625870576660825e-01  4.1194252889508698e-01  4.4841952266323770e-01  4.8557910761015621e-01  5.2332518852612908e-01  5.6157466597544881e-01  6.0025565745403475e-01  6.3930573133546675e-01  6.7867029518407684e-01  7.1830118770747964e-01  7.5815547588514964e-01  7.9819443699724002e-01  8.3838269738066162e-01  8.7868749869827956e-01  9.1907806443064710e-01  9.5952504215852985e-01  1.0000000000000000e+00  -2.0000000000000000e+00  -1.7015690468043312e+00  -1.4835970260061686e+00  -1.3147773682080546e+00  -1.1784858010052199e+00  -1.0649970123276320e+00  -9.6820221892608926e-01  -8.8404990423728669e-01  -8.0973536319997064e-01  -7.4324872148008680e-01  -6.8310819660644984e-01  -6.2819519575529215e-01  -5.7764833942261951e-01  -5.3079308410694959e-01  -4.8709366062426551e-01  -4.4611945846293061e-01  -4.0752103278884039e-01  -3.7101269048577185e-01  -3.3635968729785121e-01  -3.0336873934242486e-01  -2.7188098479331979e-01  -2.4176682019928744e-01  -2.1292223641346039e-01  -1.8526642751873182e-01  -1.5874058352461501e-01  -1.3330800851669236e-01  -1.0895630483591213e-01  -8.5703768194087718e-02  -6.3614732918544192e-02  -4.2831148404918619e-02  -2.3739449696013808e-02  -6.7588402847891449e-03  8.5813277706395744e-03  2.3258129936276833e-02  3.8349896948122110e-02  5.4625844772958537e-02  7.2109992521284028e-02  9.0828508749754441e-02  1.1088476456233395e-01  1.3236516241125371e-01  1.5533162687436219e-01  1.7982492397308411e-01  2.0585575512266652e-01  2.3339941055729563e-01  2.6239684223068055e-01  2.9276002180522476e-01  3.2438039792056839e-01  3.5713852532894286e-01  3.9091271765351132e-01  4.2558545378663337e-01  4.6104731326938009e-01  4.9719885222845678e-01  5.3395103405146516e-01  5.7122477779166303e-01  6.0895004447808321e-01  6.4706473680367316e-01  6.8551357464173290e-01  7.2424703171262761e-01  7.6322037066410942e-01  8.0239278605627207e-01  8.4172664990116297e-01  8.8118684726686125e-01  9.2074018661603541e-01  9.6035486892516808e-01  1.0000000000000000e+00  -2.0000000000000000e+00  -1.6785445505579550e+00  -1.4490772750514391e+00  -1.2741067071625700e+00  -1.1344430847537736e+00  -1.0191508665569640e+00  -9.2149421732426640e-01  -8.3707285329750358e-01  -7.6287713589443296e-01  -6.9677147525291827e-01  -6.3719432370589513e-01  -5.8297515441680392e-01  -5.3321814632041475e-01  -4.8722567495869668e-01  -4.4444649656254298e-01  -4.0443977567912265e-01  -3.6684958740992862e-01  -3.3138653777436317e-01  -2.9781435176741783e-01  -2.6594002732786737e-01  -2.3560663694483508e-01  -2.0668818769405409e-01  -1.7908619052114153e-01  -1.5272777699991996e-01  -1.2756536168642754e-01  -1.0357809750608578e-01  -8.0776374605492904e-02  -5.9214735062222523e-02  -3.9026140105217176e-02  -2.0635647585613818e-02  -4.3366309612826552e-03  1.0457651155558793e-02  2.4712964419334568e-02  3.9356327763975345e-02  5.5002523413752481e-02  7.1734680628566458e-02  8.9605459160607095e-02  1.0866332346392624e-01  1.2897382260107823e-01  1.5059741191140288e-01  1.7357968902094567e-01  1.9794770185885172e-01  2.2370537097888785e-01  2.5083074350845119e-01  2.7927651169755480e-01  3.0897339969160331e-01  3.3983561808038515e-01  3.7176722664134809e-01  4.0466818573186109e-01  4.3843925532855527e-01  4.7298542439919261e-01  5.0821795398282565e-01  5.4405531765961190e-01  5.8042336666165528e-01  6.1725500586296178e-01  6.5448959675941010e-01  6.9207223486655400e-01  7.2995299383718870e-01  7.6808618900238845e-01  8.0642968666257564e-01  8.4494426890085683e-01  8.8359305385196685e-01  9.2234096584146519e-01  9.6115424692610774e-01  1.0000000000000000e+00  -2.0000000000000000e+00  -1.6570162722890618e+00  -1.4173204168482447e+00  -1.2371124162127993e+00  -1.0947124941177426e+00  -9.7805388303570451e-01  -8.7983209500483461e-01  -7.9533853547368150e-01  -7.2138643706351779e-01  -6.5573377707788216e-01  -5.9675280967157773e-01  -5.4323077209670034e-01  -4.9424444516707083e-01  -4.4907831919652635e-01  -4.0716956856888292e-01  -3.6807009733942220e-01  -3.3141980046200298e-01  -2.9692740996111600e-01  -2.6435661945062272e-01  -2.3351599966505029e-01  -2.0425175072070129e-01  -1.7644271468378278e-01  -1.4999738400486512e-01  -1.2485295209749378e-01  -1.0097678318257167e-01  -7.8371030398704009e-02  -5.7082578480930055e-02  -3.7229619136785443e-02  -1.9209285373418396e-02  -3.3220994060288380e-03  1.1076131288722608e-02  2.4990138793441186e-02  3.9284380807893017e-02  5.4451693286537456e-02  7.0569188314345999e-02  8.7704895166947724e-02  1.0591384002865162e-01  1.2524550334426535e-01  1.4574979046664979e-01  1.6747097361233387e-01  1.9044201543916589e-01  2.1468082346248935e-01  2.4018728342558179e-01  2.6694168080006681e-01  2.9490506135948419e-01  3.2402144718324860e-01  3.5422144806802086e-01  3.8542657742420278e-01  4.1755354330403033e-01  4.5051795739653411e-01  4.8423717501600910e-01  5.1863222164404099e-01  5.5362891594250174e-01  5.8915836533238397e-01  6.2515701555269809e-01  6.6156640950445245e-01  6.9833277422788431e-01  7.3540651976718496e-01  7.7274170484567939e-01  8.1029550269078554e-01  8.4802768518772165e-01  8.8590013339868412e-01  9.2387637597175098e-01  9.6192115293779767e-01  1.0000000000000000e+00  -2.0000000000000000e+00  -1.6369087395348310e+00  -1.3880922944896246e+00  -1.2034063933857357e+00  -1.0587779192013389e+00  -9.4108918295061827e-01  -8.4252163006501357e-01  -7.5809432236377516e-01  -6.8446722169961727e-01  -6.1930797259491221e-01  -5.6093371095762801e-01  -5.0809721263603802e-01  -4.5985341731136076e-01  -4.1547297316654119e-01  -3.7438446716671797e-01  -3.3613480403687118e-01  -3.0036144718185781e-01  -2.6677265235343028e-01  -2.3513325582958622e-01  -2.0525446261430974e-01  -1.7698666040621122e-01  -1.5021471733451794e-01  -1.2485564515963352e-01  -1.0085912103615641e-01  -7.8212463520276956e-02  -5.6953479883508282e-02  -3.7196929069138920e-02  -1.9270088493335127e-02  -3.5506906518625292e-03  1.0599372097711104e-02  2.4228957586767120e-02  3.8213740085285969e-02  5.2982726732258865e-02  6.8596876259935477e-02  8.5117641390146340e-02  1.0260187169622675e-01  1.2109950244278636e-01  1.4065505941783368e-01  1.6130886230892172e-01  1.8309467663211706e-01  2.0603657566089473e-01  2.3014629312635820e-01  2.5542125846088320e-01  2.8184363490674974e-01  3.0938060575706650e-01  3.3798587961388615e-01  3.6760214958424681e-01  3.9816409168341177e-01  4.2960145266352323e-01  4.6184185593754201e-01  4.9481309662426876e-01  5.2844484163482774e-01  5.6266975913397010e-01  5.9742416317268110e-01  6.3264828151099417e-01  6.6828625147781673e-01  7.0428593277334584e-01  7.4059860615798756e-01  7.7717860792235860e-01  8.1398293406716493e-01  8.5097083576055987e-01  8.8810341858329711e-01  9.2534325170905696e-01  9.6265398885333209e-01  1.0000000000000000e+00  -2.0000000000000000e+00  -1.6181519859880735e+00  -1.3611886731363831e+00  -1.1726604807919245e+00  -1.0262118085598051e+00  -9.0775320239907664e-01  -8.0900237198160208e-01  -7.2473782271633869e-01  -6.5148668754293104e-01  -5.8683974033678754e-01  -5.2906807875096173e-01  -4.7689628041824395e-01  -4.2936185506850716e-01  -3.8572477803798333e-01  -3.4540737282093009e-01  -3.0795328946417999e-01  -2.7299891156043110e-01  -2.4025311755759002e-01  -2.0948285137422157e-01  -1.8050290254663820e-01  -1.5316892318681224e-01  -1.2737319351559206e-01  -1.0304318500760451e-01  -8.0144025114208817e-02  -5.8689077847809190e-02  -3.8773174742764017e-02  -2.0686658295368556e-02  -4.9201731083860492e-03  9.1279901183996277e-03  2.2538520148780897e-02  3.6236348895079963e-02 