<?xml version="1.0"?>
<VTKFile type="UnstructuredGrid"  version="0.1"  >
<UnstructuredGrid>
<Piece  NumberOfPoints="4225" NumberOfCells="8192">
<Points>
<DataArray  type="Float64"  NumberOfComponents="3"  format="ascii">0 0 0  0.015625 0 0  0.03125 0 0  0.046875 0 0  0.0625 0 0  0.078125 0 0  0.09375 0 0  0.109375 0 0  0.125 0 0  0.140625 0 0  0.15625 0 0  0.171875 0 0  0.1875 0 0  0.203125 0 0  0.21875 0 0  0.234375 0 0  0.25 0 0  0.265625 0 0  0.28125 0 0  0.296875 0 0  0.3125 0 0  0.328125 0 0  0.34375 0 0  0.359375 0 0  0.375 0 0  0.390625 0 0  0.40625 0 0  0.421875 0 0  0.4375 0 0  0.453125 0 0  0.46875 0 0  0.484375 0 0  0.5 0 0  0.515625 0 0  0.53125 0 0  0.546875 0 0  0.5625 0 0  0.578125 0 0  0.59375 0 0  0.609375 0 0  0.625 0 0  0.640625 0 0  0.65625 0 0  0.671875 0 0  0.6875 0 0  0.703125 0 0  0.71875 0 0  0.734375 0 0  0.75 0 0  0.765625 0 0  0.78125 0 0  0.796875 0 0  0.8125 0 0  0.828125 0 0  0.84375 0 0  0.859375 0 0  0.875 0 0  0.890625 0 0  0.90625 0 0  0.921875 0 0  0.9375 0 0  0.953125 0 0  0.96875 0 0  0.984375 0 0  1 0 0  0 0.015625 0  0.015625 0.015625 0  0.03125 0.015625 0  0.046875 0.015625 0  0.0625 0.015625 0  0.078125 0.015625 0  0.09375 0.015625 0  0.109375 0.015625 0  0.125 0.015625 0  0.140625 0.015625 0  0.15625 0.015625 0  0.171875 0.015625 0  0.1875 0.015625 0  0.203125 0.015625 0  0.21875 0.015625 0  0.234375 0.015625 0  0.25 0.015625 0  0.265625 0.015625 0  0.28125 0.015625 0  0.296875 0.015625 0  0.3125 0.015625 0  0.328125 0.015625 0  0.34375 0.015625 0  0.359375 0.015625 0  0.375 0.015625 0  0.390625 0.015625 0  0.40625 0.015625 0  0.421875 0.015625 0  0.4375 0.015625 0  0.453125 0.015625 0  0.46875 0.015625 0  0.484375 0.015625 0  0.5 0.015625 0  0.515625 0.015625 0  0.53125 0.015625 0  0.546875 0.015625 0  0.5625 0.015625 0  0.578125 0.015625 0  0.59375 0.015625 0  0.609375 0.015625 0  0.625 0.015625 0  0.640625 0.015625 0  0.65625 0.015625 0  0.671875 0.015625 0  0.6875 0.015625 0  0.703125 0.015625 0  0.71875 0.015625 0  0.734375 0.015625 0  0.75 0.015625 0  0.765625 0.015625 0  0.78125 0.015625 0  0.796875 0.015625 0  0.8125 0.015625 0  0.828125 0.015625 0  0.84375 0.015625 0  0.859375 0.015625 0  0.875 0.015625 0  0.890625 0.015625 0  0.90625 0.015625 0  0.921875 0.015625 0  0.9375 0.015625 0  0.953125 0.015625 0  0.96875 0.015625 0  0.984375 0.015625 0  1 0.015625 0  0 0.03125 0  0.015625 0.03125 0  0.03125 0.03125 0  0.046875 0.03125 0  0.0625 0.03125 0  0.078125 0.03125 0  0.09375 0.03125 0  0.109375 0.03125 0  0.125 0.03125 0  0.140625 0.03125 0  0.15625 0.03125 0  0.171875 0.03125 0  0.1875 0.03125 0  0.203125 0.03125 0  0.21875 0.03125 0  0.234375 0.03125 0  0.25 0.03125 0  0.265625 0.03125 0  0.28125 0.03125 0  0.296875 0.03125 0  0.3125 0.03125 0  0.328125 0.03125 0  0.34375 0.03125 0  0.359375 0.03125 0  0.375 0.03125 0  0.390625 0.03125 0  0.40625 0.03125 0  0.421875 0.03125 0  0.4375 0.03125 0  0.453125 0.03125 0  0.46875 0.03125 0  0.484375 0.03125 0  0.5 0.03125 0  0.515625 0.03125 0  0.53125 0.03125 0  0.546875 0.03125 0  0.5625 0.03125 0  0.578125 0.03125 0  0.59375 0.03125 0  0.609375 0.03125 0  0.625 0.03125 0  0.640625 0.03125 0  0.65625 0.03125 0  0.671875 0.03125 0  0.6875 0.03125 0  0.703125 0.03125 0  0.71875 0.03125 0  0.734375 0.03125 0  0.75 0.03125 0  0.765625 0.03125 0  0.78125 0.03125 0  0.796875 0.03125 0  0.8125 0.03125 0  0.828125 0.03125 0  0.84375 0.03125 0  0.859375 0.03125 0  0.875 0.03125 0  0.890625 0.03125 0  0.90625 0.03125 0  0.921875 0.03125 0  0.9375 0.03125 0  0.953125 0.03125 0  0.96875 0.03125 0  0.984375 0.03125 0  1 0.03125 0  0 0.046875 0  0.015625 0.046875 0  0.03125 0.046875 0  0.046875 0.046875 0  0.0625 0.046875 0  0.078125 0.046875 0  0.09375 0.046875 0  0.109375 0.046875 0  0.125 0.046875 0  0.140625 0.046875 0  0.15625 0.046875 0  0.171875 0.046875 0  0.1875 0.046875 0  0.203125 0.046875 0  0.21875 0.046875 0  0.234375 0.046875 0  0.25 0.046875 0  0.265625 0.046875 0  0.28125 0.046875 0  0.296875 0.046875 0  0.3125 0.046875 0  0.328125 0.046875 0  0.34375 0.046875 0  0.359375 0.046875 0  0.375 0.046875 0  0.390625 0.046875 0  0.40625 0.046875 0  0.421875 0.046875 0  0.4375 0.046875 0  0.453125 0.046875 0  0.46875 0.046875 0  0.484375 0.046875 0  0.5 0.046875 0  0.515625 0.046875 0  0.53125 0.046875 0  0.546875 0.046875 0  0.5625 0.046875 0  0.578125 0.046875 0  0.59375 0.046875 0  0.609375 0.046875 0  0.625 0.046875 0  0.640625 0.046875 0  0.65625 0.046875 0  0.671875 0.046875 0  0.6875 0.046875 0  0.703125 0.046875 0  0.71875 0.046875 0  0.734375 0.046875 0  0.75 0.046875 0  0.765625 0.046875 0  0.78125 0.046875 0  0.796875 0.046875 0  0.8125 0.046875 0  0.828125 0.046875 0  0.84375 0.046875 0  0.859375 0.046875 0  0.875 0.046875 0  0.890625 0.046875 0  0.90625 0.046875 0  0.921875 0.046875 0  0.9375 0.046875 0  0.953125 0.046875 0  0.96875 0.046875 0  0.984375 0.046875 0  1 0.046875 0  0 0.0625 0  0.015625 0.0625 0  0.03125 0.0625 0  0.046875 0.0625 0  0.0625 0.0625 0  0.078125 0.0625 0  0.09375 0.0625 0  0.109375 0.0625 0  0.125 0.0625 0  0.140625 0.0625 0  0.15625 0.0625 0  0.171875 0.0625 0  0.1875 0.0625 0  0.203125 0.0625 0  0.21875 0.0625 0  0.234375 0.0625 0  0.25 0.0625 0  0.265625 0.0625 0  0.28125 0.0625 0  0.296875 0.0625 0  0.3125 0.0625 0  0.328125 0.0625 0  0.34375 0.0625 0  0.359375 0.0625 0  0.375 0.0625 0  0.390625 0.0625 0  0.40625 0.0625 0  0.421875 0.0625 0  0.4375 0.0625 0  0.453125 0.0625 0  0.46875 0.0625 0  0.484375 0.0625 0  0.5 0.0625 0  0.515625 0.0625 0  0.53125 0.0625 0  0.546875 0.0625 0  0.5625 0.0625 0  0.578125 0.0625 0  0.59375 0.0625 0  0.609375 0.0625 0  0.625 0.0625 0  0.640625 0.0625 0  0.65625 0.0625 0  0.671875 0.0625 0  0.6875 0.0625 0  0.703125 0.0625 0  0.71875 0.0625 0  0.734375 0.0625 0  0.75 0.0625 0  0.765625 0.0625 0  0.78125 0.0625 0  0.796875 0.0625 0  0.8125 0.0625 0  0.828125 0.0625 0  0.84375 0.0625 0  0.859375 0.0625 0  0.875 0.0625 0  0.890625 0.0625 0  0.90625 0.0625 0  0.921875 0.0625 0  0.9375 0.0625 0  0.953125 0.0625 0  0.96875 0.0625 0  0.984375 0.0625 0  1 0.0625 0  0 0.078125 0  0.015625 0.078125 0  0.03125 0.078125 0  0.046875 0.078125 0  0.0625 0.078125 0  0.078125 0.078125 0  0.09375 0.078125 0  0.109375 0.078125 0  0.125 0.078125 0  0.140625 0.078125 0  0.15625 0.078125 0  0.171875 0.078125 0  0.1875 0.078125 0  0.203125 0.078125 0  0.21875 0.078125 0  0.234375 0.078125 0  0.25 0.078125 0  0.265625 0.078125 0  0.28125 0.078125 0  0.296875 0.078125 0  0.3125 0.078125 0  0.328125 0.078125 0  0.34375 0.078125 0  0.359375 0.078125 0  0.375 0.078125 0  0.390625 0.078125 0  0.40625 0.078125 0  0.421875 0.078125 0  0.4375 0.078125 0  0.453125 0.078125 0  0.46875 0.078125 0  0.484375 0.078125 0  0.5 0.078125 0  0.515625 0.078125 0  0.53125 0.078125 0  0.546875 0.078125 0  0.5625 0.078125 0  0.578125 0.078125 0  0.59375 0.078125 0  0.609375 0.078125 0  0.625 0.078125 0  0.640625 0.078125 0  0.65625 0.078125 0  0.671875 0.078125 0  0.6875 0.078125 0  0.703125 0.078125 0  0.71875 0.078125 0  0.734375 0.078125 0  0.75 0.078125 0  0.765625 0.078125 0  0.78125 0.078125 0  0.796875 0.078125 0  0.8125 0.078125 0  0.828125 0.078125 0  0.84375 0.078125 0  0.859375 0.078125 0  0.875 0.078125 0  0.890625 0.078125 0  0.90625 0.078125 0  0.921875 0.078125 0  0.9375 0.078125 0  0.953125 0.078125 0  0.96875 0.078125 0  0.984375 0.078125 0  1 0.078125 0  0 0.09375 0  0.015625 0.09375 0  0.03125 0.09375 0  0.046875 0.09375 0  0.0625 0.09375 0  0.078125 0.09375 0  0.09375 0.09375 0  0.109375 0.09375 0  0.125 0.09375 0  0.140625 0.09375 0  0.15625 0.09375 0  0.171875 0.09375 0  0.1875 0.09375 0  0.203125 0.09375 0  0.21875 0.09375 0  0.234375 0.09375 0  0.25 0.09375 0  0.265625 0.09375 0  0.28125 0.09375 0  0.296875 0.09375 0  0.3125 0.09375 0  0.328125 0.09375 0  0.34375 0.09375 0  0.359375 0.09375 0  0.375 0.09375 0  0.390625 0.09375 0  0.40625 0.09375 0  0.421875 0.09375 0  0.4375 0.09375 0  0.453125 0.09375 0  0.46875 0.09375 0  0.484375 0.09375 0  0.5 0.09375 0  0.515625 0.09375 0  0.53125 0.09375 0  0.546875 0.09375 0  0.5625 0.09375 0  0.578125 0.09375 0  0.59375 0.09375 0  0.609375 0.09375 0  0.625 0.09375 0  0.640625 0.09375 0  0.65625 0.09375 0  0.671875 0.09375 0  0.6875 0.09375 0  0.703125 0.09375 0  0.71875 0.09375 0  0.734375 0.09375 0  0.75 0.09375 0  0.765625 0.09375 0  0.78125 0.09375 0  0.796875 0.09375 0  0.8125 0.09375 0  0.828125 0.09375 0  0.84375 0.09375 0  0.859375 0.09375 0  0.875 0.09375 0  0.890625 0.09375 0  0.90625 0.09375 0  0.921875 0.09375 0  0.9375 0.09375 0  0.953125 0.09375 0  0.96875 0.09375 0  0.984375 0.09375 0  1 0.09375 0  0 0.109375 0  0.015625 0.109375 0  0.03125 0.109375 0  0.046875 0.109375 0  0.0625 0.109375 0  0.078125 0.109375 0  0.09375 0.109375 0  0.109375 0.109375 0  0.125 0.109375 0  0.140625 0.109375 0  0.15625 0.109375 0  0.171875 0.109375 0  0.1875 0.109375 0  0.203125 0.109375 0  0.21875 0.109375 0  0.234375 0.109375 0  0.25 0.109375 0  0.265625 0.109375 0  0.28125 0.109375 0  0.296875 0.109375 0  0.3125 0.109375 0  0.328125 0.109375 0  0.34375 0.109375 0  0.359375 0.109375 0  0.375 0.109375 0  0.390625 0.109375 0  0.40625 0.109375 0  0.421875 0.109375 0  0.4375 0.109375 0  0.453125 0.109375 0  0.46875 0.109375 0  0.484375 0.109375 0  0.5 0.109375 0  0.515625 0.109375 0  0.53125 0.109375 0  0.546875 0.109375 0  0.5625 0.109375 0  0.578125 0.109375 0  0.59375 0.109375 0  0.609375 0.109375 0  0.625 0.109375 0  0.640625 0.109375 0  0.65625 0.109375 0  0.671875 0.109375 0  0.6875 0.109375 0  0.703125 0.109375 0  0.71875 0.109375 0  0.734375 0.109375 0  0.75 0.109375 0  0.765625 0.109375 0  0.78125 0.109375 0  0.796875 0.109375 0  0.8125 0.109375 0  0.828125 0.109375 0  0.84375 0.109375 0  0.859375 0.109375 0  0.875 0.109375 0  0.890625 0.109375 0  0.90625 0.109375 0  0.921875 0.109375 0  0.9375 0.109375 0  0.953125 0.109375 0  0.96875 0.109375 0  0.984375 0.109375 0  1 0.109375 0  0 0.125 0  0.015625 0.125 0  0.03125 0.125 0  0.046875 0.125 0  0.0625 0.125 0  0.078125 0.125 0  0.09375 0.125 0  0.109375 0.125 0  0.125 0.12
[...]
<PointData  Scalars="f_6"> 
<DataArray  type="Float64"  Name="f_6"  format="ascii">-2.0000000000000000e+00  -1.9531250000000000e+00  -1.9062500000000000e+00  -1.8593750000000000e+00  -1.8125000000000000e+00  -1.7656250000000000e+00  -1.7187500000000000e+00  -1.6718750000000000e+00  -1.6250000000000000e+00  -1.5781250000000000e+00  -1.5312500000000000e+00  -1.4843750000000000e+00  -1.4375000000000000e+00  -1.3906250000000000e+00  -1.3437500000000000e+00  -1.2968750000000000e+00  -1.2500000000000000e+00  -1.2031250000000000e+00  -1.1562500000000000e+00  -1.1093750000000000e+00  -1.0625000000000000e+00  -1.0156250000000000e+00  -9.6875000000000011e-01  -9.2187500000000000e-01  -8.7500000000000000e-01  -8.2812500000000000e-01  -7.8125000000000000e-01  -7.3437500000000000e-01  -6.8750000000000000e-01  -6.4062500000000000e-01  -5.9375000000000000e-01  -5.4687500000000000e-01  -5.0000000000000000e-01  -4.5312499999999994e-01  -4.0625000000000000e-01  -3.5937500000000000e-01  -3.1250000000000000e-01  -2.6562500000000000e-01  -2.1875000000000000e-01  -1.7187500000000000e-01  -1.2500000000000000e-01  -7.8125000000000000e-02  -3.1250000000000000e-02  1.5625000000000000e-02  6.2500000000000000e-02  1.0937500000000000e-01  1.5625000000000000e-01  2.0312500000000000e-01  2.5000000000000000e-01  2.9687500000000000e-01  3.4375000000000000e-01  3.9062500000000000e-01  4.3750000000000000e-01  4.8437500000000000e-01  5.3125000000000000e-01  5.7812500000000000e-01  6.2500000000000000e-01  6.7187500000000000e-01  7.1875000000000000e-01  7.6562500000000000e-01  8.1250000000000000e-01  8.5937500000000000e-01  9.0625000000000000e-01  9.5312500000000000e-01  1.0000000000000000e+00  -2.0000000000000000e+00  -1.9132978040053106e+00  -1.8332852231881347e+00  -1.7585349912538233e+00  -1.6881247821862848e+00  -1.6213845907375442e+00  -1.5577947445793467e+00  -1.4969365554297702e+00  -1.4384646002772838e+00  -1.3820893004776782e+00  -1.3275650511443784e+00  -1.2746816556424474e+00  -1.2232578879718932e+00  -1.1731365100856883e+00  -1.1241803308083678e+00  -1.0762690370117975e+00  -1.0292966128915007e+00  -9.8316921651894496e-01  -9.3780341796773337e-01  -8.9312472757661698e-01  -8.4906636054871054e-01  -8.0556819771949728e-01  -7.6257591374662470e-01  -7.2004025457340048e-01  -6.7791645714916327e-01  -6.3616381789127641e-01  -5.9474543531699908e-01  -5.5362818106281220e-01  -5.1278299352473133e-01  -4.7218561954207117e-01  -4.3181786307209613e-01  -3.9166900364938656e-01  -3.5173598515698490e-01  -3.1201969841853922e-01  -2.7251801484302557e-01  -2.3323498985980698e-01  -1.9423248680293795e-01  -1.5561749177225839e-01  -1.1732561021938168e-01  -7.9114400609582247e-02  -4.4564291952976856e-02  -1.1916114247804907e-02  2.1773240952825609e-02  5.7394663708313226e-02  9.6141769793294904e-02  1.3801712870018817e-01  1.8131451771720677e-01  2.2537941214654811e-01  2.6991735556730218e-01  3.1477556805662588e-01  3.5986508356262525e-01  4.0512929962067534e-01  4.5052969635343770e-01  4.9603865597597757e-01  5.4163553344684856e-01  5.8730435260184111e-01  6.3303237697491732e-01  6.7880918064625140e-01  7.2462601943231741e-01  7.7047538986474762e-01  8.1635070937823240e-01  8.6224607659141894e-01  9.0815608523984459e-01  9.5407567403620042e-01  1.0000000000000000e+00  -2.0000000000000000e+00  -1.8766003474250978e+00  -1.7680221587449767e+00  -1.6708546337646868e+00  -1.5827475550446162e+00  -1.5020025205379870e+00  -1.4273449612928957e+00  -1.3577903913549969e+00  -1.2925612595953082e+00  -1.2310325102755701e+00  -1.1726943806249270e+00  -1.1171260835614323e+00  -1.0639766634592538e+00  -1.0129507484660998e+00  -9.6379774432078580e-01  -9.1630350657591608e-01  -8.7028383473387816e-01  -8.2557932962076952e-01  -7.8205128690951298e-01  -7.3957838974940582e-01  -6.9805402690566443e-01  -6.5738410911594658e-01  -6.1748529182506173e-01  -5.7828354149910155e-01  -5.3971300876010042e-01  -5.0171519796007957e-01  -4.6423845465575114e-01  -4.2723783995932529e-01  -3.9067554131145604e-01  -3.5452209581443916e-01  -3.1875882509870912e-01  -2.8338170703033833e-01  -2.4840545020170221e-01  -2.1386160898666931e-01  -1.7977844286064440e-01  -1.4616769515275119e-01  -1.1318429956518036e-01  -8.1340228624463745e-02  -5.0890834123879243e-02  -2.2993105156934073e-02  3.0501066190292323e-03  2.9807821504795374e-02  5.8774253171103609e-02  9.0838389146416912e-02  1.2665528676467822e-01  1.6523722729025103e-01  2.0561153002209082e-01  2.4716077530168340e-01  2.8951444206603472e-01  3.3244483309657608e-01  3.7580546657319996e-01  4.1949741856663819e-01  4.6345082981709773e-01  5.0761439410362519e-01  5.5194912520957518e-01  5.9642449998559888e-01  6.4101597465157656e-01  6.8570332617777074e-01  7.3046950721827109e-01  7.7529983064844088e-01  8.2018137105676314e-01  8.6510251174759900e-01  9.1005259033175889e-01  9.5502161090495730e-01  1.0000000000000000e+00  -2.0000000000000000e+00  -1.8424407469955764e+00  -1.7091257680448884e+00  -1.5937565197667303e+00  -1.4921172880083209e+00  -1.4012642002107434e+00  -1.3190669900348837e+00  -1.2439380073954047e+00  -1.1746647530031364e+00  -1.1103021572719336e+00  -1.0501007997871259e+00  -9.9345759125056432e-01  -9.3988098165089051e-01  -8.8896584937673695e-01  -8.4037501496783784e-01  -7.9382539480359671e-01  -7.4907747233933941e-01  -7.0592718562018464e-01  -6.6419960458590366e-01  -6.2374395540238359e-01  -5.8442967497625808e-01  -5.4614326764704346e-01  -5.0878580123404304e-01  -4.7227093019366528e-01  -4.3652337580898976e-01  -4.0147783136634974e-01  -3.6707829864178776e-01  -3.3327791233646975e-01  -3.0003940604614721e-01  -2.6733659574322527e-01  -2.3515773290690886e-01  -2.0351241846924245e-01  -1.7244449986180871e-01  -1.4204855759969420e-01  -1.1244549223035848e-01  -8.3634649439747785e-02  -5.5638414955120924e-02  -3.0615768641323534e-02  -7.7437529921052959e-03  1.4466210261353881e-02  3.6905058764560177e-02  6.1532891139641215e-02  8.9538278989814590e-02  1.2052935294157263e-01  1.5440376082875004e-01  1.9066496367404681e-01  2.2873359977922214e-01  2.6813771697206007e-01  3.0853480429857716e-01  3.4968385569044358e-01  3.9141453106696034e-01  4.3360407825557989e-01  4.7616181024468984e-01  5.1901896541185089e-01  5.6212207330222796e-01  6.0542854747940267e-01  6.4890369546801940e-01  6.9251864219498460e-01  7.3624885261455519e-01  7.8007305445398201e-01  8.2397243245277985e-01  8.6793000901045514e-01  9.1193015343463490e-01  9.5595817925186977e-01  1.0000000000000000e+00  -2.0000000000000000e+00  -1.8105088417853781e+00  -1.6556534559874629e+00  -1.5253685573406393e+00  -1.4132388716867694e+00  -1.3149616996261315e+00  -1.2275301084535661e+00  -1.1487706776224242e+00  -1.0770678951542729e+00  -1.0111924354184345e+00  -9.5019005018652924e-01  -8.9330730150392501e-01  -8.3994050057417879e-01  -7.8959972867346184e-01  -7.4188293499644109e-01  -6.9645693480965565e-01  -6.5304323784582430e-01  -6.1140732600550118e-01  -5.7135043996220825e-01  -5.3270322282903737e-01  -4.9532076268684189e-01  -4.5907870931540123e-01  -4.2387023607027813e-01  -3.8960369033982534e-01  -3.5620083544898423e-01  -3.2359563877940334e-01  -2.9173360571573442e-01  -2.6057169773882272e-01  -2.3007893427637455e-01  -2.0023797782485081e-01  -1.7104863148798363e-01  -1.4253598233466883e-01  -1.1477146326383703e-01  -8.7939551975561622e-02  -6.2464546187333519e-02  -3.8456931519481499e-02  -1.6697240426678740e-02  3.1649458317839709e-03  2.2782171268922905e-02  4.3155694667881835e-02  6.5174517205798949e-02  8.9880405299394700e-02  1.1731661870694091e-01  1.4733698280130902e-01  1.7976543993470243e-01  2.1428526679796395e-01  2.5052018844869084e-01  2.8812168850875769e-01  3.2680320246577027e-01  3.6634125429966086e-01  4.0656472374861807e-01  4.4734255314403126e-01  4.8857336749423075e-01  5.3017758399686055e-01  5.7209165510808202e-01  6.1426392116176443e-01  6.5665161754611323e-01  6.9921869451959295e-01  7.4193420659098297e-01  7.8477110210015177e-01  8.2770529528991954e-01  8.7071493840680703e-01  9.1377983514445593e-01  9.5688095266788642e-01  1.0000000000000000e+00  -2.0000000000000000e+00  -1.7806074503657123e+00  -1.6069005802905838e+00  -1.4642892525759925e+00  -1.3439333555460899e+00  -1.2401318160133534e+00  -1.1490246447015187e+00  -1.0678944316546106e+00  -9.9476608462068872e-01  -9.2816543393988893e-01  -8.6696731367353141e-01  -8.1029644182376648e-01  -7.5746071834914497e-01  -7.0790512163023167e-01  -6.6117909177379752e-01  -6.1691298172908826e-01  -5.7480075148403997e-01  -5.3458705413610808e-01  -4.9605747385169285e-01  -4.5903106943610766e-01  -4.2335463719786004e-01  -3.8889828314483343e-01  -3.5555201878997211e-01  -3.2322318846895937e-01  -2.9183461524996318e-01  -2.6132342811805409e-01  -2.3164060401929351e-01  -2.0275130414493625e-01  -1.7463609420563495e-01  -1.4729322203930384e-01  -1.2074259382380195e-01  -9.5033383744107441e-02  -7.0261517315072047e-02  -4.6556960926663171e-02  -2.5608707867936956e-02  -6.7077148123708538e-03  1.1217582024882971e-02  2.8848912524818950e-02  4.7553516526708209e-02  6.8207537786671352e-02  9.0756910091359097e-02  1.1549759414519775e-01  1.4251080773724539e-01  1.7173651962202019e-01  2.0303574931078658e-01  2.3619047513441579e-01  2.7094019870881964e-01  3.0702564614850858e-01  3.4421506275608532e-01  3.8231323529381150e-01  4.2116055648381989e-01  4.6062804307769595e-01  5.0061152259134123e-01  5.4102634797327864e-01  5.8180304197147559e-01  6.2288386451345923e-01  6.6422015903507636e-01  7.0577031174629090e-01  7.4749817712963196e-01  7.8937185206572302e-01  8.3136270819993929e-01  8.7344461418239716e-01  9.1559329606849571e-01  9.5778579627521965e-01  1.0000000000000000e+00  -2.0000000000000000e+00  -1.7525917134659164e+00  -1.5623149183398617e+00  -1.4094396726169960e+00  -1.2825705970112418e+00  -1.1746189119777983e+00  -1.0809185809922901e+00  -9.9825875557652199e-01  -9.2434934188324647e-01  -8.5750811476816535e-01  -7.9646859100261658e-01  -7.4025726103587619e-01  -6.8811244661795312e-01  -6.3942909533340753e-01  -5.9372027016027018e-01  -5.5058969644639200e-01  -5.0971182119806668e-01  -4.7081709550733791e-01  -4.3368096758612523e-01  -3.9811556745201476e-01  -3.6396338627443398e-01  -3.3109246921536140e-01  -2.9939279076171282e-01  -2.6877359437885007e-01  -2.3916157931403073e-01  -2.1049993380102394e-01  -1.8274836324105778e-01  -1.5588441199465725e-01  -1.2990645666407039e-01  -1.0483895638263072e-01  -8.0741973040060949e-02  -5.7732245948627255e-02  -3.6034657134888966e-02  -1.6761936056093552e-02  3.4314069142092011e-04  1.6817519881389929e-02  3.3537183349420303e-02  5.1127518988861038e-02  7.0375444526419653e-02  9.1364029860736190e-02  1.1414799122776820e-01  1.3884225345279202e-01  1.6549249847482275e-01  1.9406253863873976e-01  2.2445056255200818e-01  2.5650068572009299e-01  2.9002448510366347e-01  3.2482563462037273e-01  3.6071816711625115e-01  3.9753606763568017e-01  4.3513622381515349e-01  4.7339754009159163e-01  5.1221833182015941e-01  5.5151324333343732e-01  5.9121030029108235e-01  6.3124833588552121e-01  6.7157484233444176e-01  7.1214421630086311e-01  7.5291633811552994e-01  7.9385542083316940e-01  8.3492907126171712e-01  8.7610751405434695e-01  9.1736293867190999e-01  9.5866893636449690e-01  1.0000000000000000e+00  -2.0000000000000000e+00  -1.7263443647281194e+00  -1.5214484468498182e+00  -1.3599691907874432e+00  -1.2279012636553366e+00  -1.1168113306036282e+00  -1.0212852214739474e+00  -9.3767024996663662e-01  -8.6340279330101444e-01  -7.9662477107888785e-01  -7.3595313214337843e-01  -6.8033516930664484e-01  -6.2895433630115960e-01  -5.8116700927766074e-01  -5.3645888167301703e-01  -4.9441420111765411e-01  -4.5469363682928532e-01  -4.1701809175320131e-01  -3.8115670541695962e-01  -3.4691787942306057e-01  -3.1414253664067365e-01  -2.8269907768877262e-01  -2.5247967245851743e-01  -2.2339765348016699e-01  -1.9538589756505775e-01  -1.6839625369845079e-01  -1.4240039507922328e-01  -1.1739297960979221e-01  -9.3398532594614253e-02  -7.0484642848632040e-02  -4.8788226781594897e-02  -2.8623606924832304e-02  -1.0681163205687100e-02  5.3741417740529648e-03  2.0632955422965959e-02  3.6418738377562418e-02  5.3480819890874789e-02  7.1748535554785262e-02  9.1456712729373182e-02  1.1272514590208565e-01  1.3562877150618552e-01  1.6023092996337945e-01  1.8655439407051375e-01  2.1457057390610806e-01  2.4420327653841334e-01  2.7533722009028444e-01  3.0783142136536862e-01  3.4153424011306793e-01  3.7629590345286629e-01  4.1197664431750447e-01  4.4845073104952238e-01  4.8560756165335778e-01  5.2335102126426725e-01  5.6159799324922921e-01  6.0027657997389483e-01  6.3932433640310193e-01  6.7868665811630613e-01  7.1831537300718995e-01  7.5816753819845562e-01  7.9820442188970708e-01  8.3839064195941260e-01  8.7869343210136308e-01  9.1908200820030073e-01  9.5952701051085765e-01  1.0000000000000000e+00  -2.0000000000000000e+00  -1.7017645342973307e+00  -1.4839286057130403e+00  -1.3151938353726329e+00  -1.1789478822793573e+00  -1.0654757833153325e+00  -9.6867678198131835e-01  -8.8450537817802488e-01  -8.1016133723297623e-01  -7.4363811047445294e-01  -6.8345640255292872e-01  -6.2849949315173170e-01  -5.7790742225031533e-01  -5.3100672931030979e-01  -4.8726247601495892e-01  -4.4624469228750702e-01  -4.0760442872548835e-01  -3.7105637637422378e-01  -3.3636608912036747e-01  -3.0334051447180777e-01  -2.7182097094825991e-01  -2.4167799950249411e-01  -2.1280771738950541e-01  -1.8512944936467993e-01  -1.5858453931769767e-01  -1.3313645993699796e-01  -1.0877295307494728e-01  -8.5512454024741627e-02  -6.3419675060528660e-02  -4.2638315815796669e-02  -2.3559111068246093e-02  -6.5952456255769778e-03  8.7302352833147391e-03  2.3395381128603662e-02  3.8477256497961139e-02  5.4743658315019005e-02  7.2218822281731196e-02  9.0929090610032043e-02  1.1097772493420210e-01  1.3245106951204771e-01  1.5541101893150872e-01  1.7989830082402661e-01  2.0592357393774477e-01  2.3346208637676538e-01  2.6245474960525278e-01  2.9281349673726298e-01  3.2442974015445858e-01  3.5718400101366338e-01  3.9095456226464165e-01  4.2562387513194910e-01  4.6108249441207388e-01  4.9723095420805002e-01  5.3398019833432298e-01  5.7125112842531767e-01  6.0897368995216583e-01  6.4708577163668679e-01  6.8553208072049088e-01  7.2426307941313550e-01  7.6323401978139560e-01  8.0240408656779061e-01  8.4173564258486344e-01  8.8119356419139216e-01  9.2074465151707174e-01  9.6035709747863418e-01  1.0000000000000000e+00  -2.0000000000000000e+00  -1.6787622496713710e+00  -1.4494400648248802e+00  -1.2745546499342983e+00  -1.1349320392443978e+00  -1.0196495636914842e+00  -9.2198093401602277e-01  -8.3753275808890837e-01  -7.6330034804025548e-01  -6.9715168199761635e-01  -6.3752779978597218e-01  -5.8326006395492092e-01  -5.3345404195959700e-01  -4.8741313531946556e-01  -4.4458686153401805e-01  -4.0453495164076930e-01  -3.6690190296311415e-01  -3.3139863621794824e-01  -2.9778911030330418e-01  -2.6588049563114691e-01  -2.3551599026177425e-01  -2.0656969349524446e-01  -1.7894319458107635e-01  -1.5256372361500786e-01  -1.2738386034749230e-01  -1.0338299557774557e-01  -8.0571715079753525e-02  -5.9004748204529008e-02  -3.8816396327620704e-02  -2.0436923779848577e-02  -4.1545523668234238e-03  1.0624306354487053e-02  2.4867383333362525e-02  3.9500611105380730e-02  5.5137031125255913e-02  7.1859816102821300e-02  8.9721720310998981e-02  1.0877127966940957e-01  1.2907402688535549e-01  1.5069038828039424e-01  1.7366593388377505e-01  1.9802768046347338e-01  2.2377951447967342e-01  2.5089944805795594e-01  2.7934013876856939e-01  3.0903227709905612e-01  3.3989004150153940e-01  3.7181746152248540e-01  4.0471446946008788e-01  4.3848179953357641e-01  4.7302441725877403e-01  5.0825356243244535e-01  5.4408768943965702e-01  5.8045263216555265e-01  6.1728127977276415e-01  6.5451297947098896e-01  6.9209281371583509e-01  7.2997084414346536e-01  7.6810137494620079e-01  8.0644226201519620e-01  8.4495427762085840e-01  8.8360053056227006e-01  9.2234593619796013e-01  9.6115672788660766e-01  1.0000000000000000e+00  -2.0000000000000000e+00  -1.6572555590515643e+00  -1.4177124613353072e+00  -1.2375886744287512e+00  -1.0952243753951860e+00  -9.7856821316166132e-01  -8.8032668972475392e-01  -7.9579888192226045e-01  -7.2180336608635021e-01  -6.5610185866563686e-01  -5.9706924697714259e-01  -5.4349463404537668e-01  -4.9445612916378995e-01  -4.4923917141144454e-01  -4.0728161336689950e-01  -3.6813584332040472e-01  -3.3144210100905946e-01  -2.9690936293315390e-01  -2.6430149483119675e-01  -2.3342718642193352e-01  -2.0413271591269036e-01  -1.7629697126676339e-01  -1.4982847378262426e-01  -1.2466447409363732e-01  -1.0077252912681582e-01  -7.8155219466060008e-02  -5.6859817225358024e-02  -3.7005517369486221e-02  -1.8993925338365070e-02  -3.1222325783337420e-03  1.1260349547817254e-02  2.5161590925212949e-02  3.9445414173783062e-02  5.4602648834300826e-02  7.0710440794860455e-02  8.7836854660011260e-02  1.0603696319003392e-01  1.2536028087125187e-01  1.4585671465741584e-01  1.6757052284039900e-01  1.9053464785972393e-01  2.1476697266641853e-01  2.4026735545951955e-01  2.6701605260681543e-01  2.9497408031201316e-01  3.2408543138885304e-01  3.5428068723015710e-01  3.8548133411465119e-01  4.1760405451964833e-01  4.5056443628349474e-01  4.8427981265699988e-01  5.1867118882330043e-01  5.5366436482630765e-01  5.8919043102447222e-01  6.2518581750234881e-01  6.6159205275866939e-01  6.9835535052839615e-01  7.3542610849868961e-01  7.7275837384474555e-01  8.1030930892593578e-01  8.4803867532110366e-01  8.8590834423886933e-01  9.2388183482589092e-01  9.6192387786983624e-01  1.0000000000000000e+00  -2.0000000000000000e+00  -1.6371689439682604e+00  -1.3885117320508638e+00  -1.2039081422456770e+00  -1.0593093687243487e+00  -9.4161565367529765e-01  -8.4302078161412097e-01  -7.5855216790850111e-01  -6.8487542989567007e-01  -6.1966206051641270e-01  -5.6123182966414797e-01  -5.0833932402690352e-01  -4.6004073062563622e-01  -4.1560755559674911e-01  -3.7446897283721314e-01  -3.3617228477617667e-01  -3.0035522088765987e-01  -2.6672621263059859e-01  -2.3505021127034648e-01  -2.0513849623273678e-01  -1.7684149989969442e-01  -1.5004410697178630e-01  -1.2466331776661368e-01  -1.0064880811161415e-01  -7.7988111172845043e-02  -5.6719969082791116e-02  -3.6960434882264359e-02  -1.9039795718121956e-02  -3.3338608392885936e-03  1.0801103293635369e-02  2.4417525556512814e-02  3.8391481075100348e-02  5.3150033602255932e-02  6.8754129263179087e-02  8.5265228559873799e-02  1.0274019855232931e-01  1.2122899691787359e-01  1.4077616596814815e-01  1.6142202803265701e-01  1.8320034056406190e-01  2.0613516204830318e-01  2.3023820688295729e-01  2.5550688208517075e-01  2.8192332659777292e-01  3.0945469848381491e-01  3.3805468091418589e-01  3.6766594191558460e-01  3.9822313318631314e-01  4.2965597822035950e-01  4.6189207842375435e-01  4.9485920826243046e-01  5.2848701537744835e-01  5.6270815001780083e-01  5.9745890960368009e-01  6.3267950645348947e-01  6.6831406353294354e-01  7.0431042714039005e-01  7.4061986547815151e-01  7.7719670300815635e-01  8.1399792452269693e-01  8.5098277049875082e-01  8.8811233624621255e-01  9.2534918099689778e-01  9.6265694876684660e-01  1.0000000000000000e+00  -2.0000000000000000e+00  -1.6184323952799842e+00  -1.3616337330256734e+00  -1.1731851957966417e+00  -1.0267599707862065e+00  -9.0828898207823838e-01  -8.0950352211611654e-01  -7.2519103729759227e-01  -6.5188455486347252e-01  -5.8717875411570719e-01  -5.2934733180950433e-01  -4.7711659811540080e-01  -4.2952521442815067e-01  -3.8583391482296492e-01  -3.4546551417434929e-01  -3.0796397207723586e-01  -2.7296585961429326e-01  -2.4018016386435689e-01  -2.0937389074207308e-01  -1.8036186885937402e-01  -1.5299978060009883e-01  -1.2717992707310269e-01  -1.0282977042442359e-01  -7.9914380866046686e-02  -5.8447254486203637e-02  -3.8525642148063276e-02  -2.0442545815179458e-02  -4.6871947726179371e-03  9.3470643604445670e-03  2.2744408787712295e-02  3.6430854227987176e-02 