<?xml version="1.0"?>
<VTKFile type="UnstructuredGrid"  version="0.1"  >
<UnstructuredGrid>
<Piece  NumberOfPoints="441" NumberOfCells="800">
<Points>
<DataArray  type="Float64"  NumberOfComponents="3"  format="ascii">0 0 0  0.05 0 0  0.1 0 0  0.15 0 0  0.2 0 0  0.25 0 0  0.3 0 0  0.35 0 0  0.4 0 0  0.45 0 0  0.5 0 0  0.55 0 0  0.6 0 0  0.65 0 0  0.7 0 0  0.75 0 0  0.8 0 0  0.85 0 0  0.9 0 0  0.95 0 0  1 0 0  0 0.05 0  0.05 0.05 0  0.1 0.05 0  0.15 0.05 0  0.2 0.05 0  0.25 0.05 0  0.3 0.05 0  0.35 0.05 0  0.4 0.05 0  0.45 0.05 0  0.5 0.05 0  0.55 0.05 0  0.6 0.05 0  0.65 0.05 0  0.7 0.05 0  0.75 0.05 0  0.8 0.05 0  0.85 0.05 0  0.9 0.05 0  0.95 0.05 0  1 0.05 0  0 0.1 0  0.05 0.1 0  0.1 0.1 0  0.15 0.1 0  0.2 0.1 0  0.25 0.1 0  0.3 0.1 0  0.35 0.1 0  0.4 0.1 0  0.45 0.1 0  0.5 0.1 0  0.55 0.1 0  0.6 0.1 0  0.65 0.1 0  0.7 0.1 0  0.75 0.1 0  0.8 0.1 0  0.85 0.1 0  0.9 0.1 0  0.95 0.1 0  1 0.1 0  0 0.15 0  0.05 0.15 0  0.1 0.15 0  0.15 0.15 0  0.2 0.15 0  0.25 0.15 0  0.3 0.15 0  0.35 0.15 0  0.4 0.15 0  0.45 0.15 0  0.5 0.15 0  0.55 0.15 0  0.6 0.15 0  0.65 0.15 0  0.7 0.15 0  0.75 0.15 0  0.8 0.15 0  0.85 0.15 0  0.9 0.15 0  0.95 0.15 0  1 0.15 0  0 0.2 0  0.05 0.2 0  0.1 0.2 0  0.15 0.2 0  0.2 0.2 0  0.25 0.2 0  0.3 0.2 0  0.35 0.2 0  0.4 0.2 0  0.45 0.2 0  0.5 0.2 0  0.55 0.2 0  0.6 0.2 0  0.65 0.2 0  0.7 0.2 0  0.75 0.2 0  0.8 0.2 0  0.85 0.2 0  0.9 0.2 0  0.95 0.2 0  1 0.2 0  0 0.25 0  0.05 0.25 0  0.1 0.25 0  0.15 0.25 0  0.2 0.25 0  0.25 0.25 0  0.3 0.25 0  0.35 0.25 0  0.4 0.25 0  0.45 0.25 0  0.5 0.25 0  0.55 0.25 0  0.6 0.25 0  0.65 0.25 0  0.7 0.25 0  0.75 0.25 0  0.8 0.25 0  0.85 0.25 0  0.9 0.25 0  0.95 0.25 0  1 0.25 0  0 0.3 0  0.05 0.3 0  0.1 0.3 0  0.15 0.3 0  0.2 0.3 0  0.25 0.3 0  0.3 0.3 0  0.35 0.3 0  0.4 0.3 0  0.45 0.3 0  0.5 0.3 0  0.55 0.3 0  0.6 0.3 0  0.65 0.3 0  0.7 0.3 0  0.75 0.3 0  0.8 0.3 0  0.85 0.3 0  0.9 0.3 0  0.95 0.3 0  1 0.3 0  0 0.35 0  0.05 0.35 0  0.1 0.35 0  0.15 0.35 0  0.2 0.35 0  0.25 0.35 0  0.3 0.35 0  0.35 0.35 0  0.4 0.35 0  0.45 0.35 0  0.5 0.35 0  0.55 0.35 0  0.6 0.35 0  0.65 0.35 0  0.7 0.35 0  0.75 0.35 0  0.8 0.35 0  0.85 0.35 0  0.9 0.35 0  0.95 0.35 0  1 0.35 0  0 0.4 0  0.05 0.4 0  0.1 0.4 0  0.15 0.4 0  0.2 0.4 0  0.25 0.4 0  0.3 0.4 0  0.35 0.4 0  0.4 0.4 0  0.45 0.4 0  0.5 0.4 0  0.55 0.4 0  0.6 0.4 0  0.65 0.4 0  0.7 0.4 0  0.75 0.4 0  0.8 0.4 0  0.85 0.4 0  0.9 0.4 0  0.95 0.4 0  1 0.4 0  0 0.45 0  0.05 0.45 0  0.1 0.45 0  0.15 0.45 0  0.2 0.45 0  0.25 0.45 0  0.3 0.45 0  0.35 0.45 0  0.4 0.45 0  0.45 0.45 0  0.5 0.45 0  0.55 0.45 0  0.6 0.45 0  0.65 0.45 0  0.7 0.45 0  0.75 0.45 0  0.8 0.45 0  0.85 0.45 0  0.9 0.45 0  0.95 0.45 0  1 0.45 0  0 0.5 0  0.05 0.5 0  0.1 0.5 0  0.15 0.5 0  0.2 0.5 0  0.25 0.5 0  0.3 0.5 0  0.35 0.5 0  0.4 0.5 0  0.45 0.5 0  0.5 0.5 0  0.55 0.5 0  0.6 0.5 0  0.65 0.5 0  0.7 0.5 0  0.75 0.5 0  0.8 0.5 0  0.85 0.5 0  0.9 0.5 0  0.95 0.5 0  1 0.5 0  0 0.55 0  0.05 0.55 0  0.1 0.55 0  0.15 0.55 0  0.2 0.55 0  0.25 0.55 0  0.3 0.55 0  0.35 0.55 0  0.4 0.55 0  0.45 0.55 0  0.5 0.55 0  0.55 0.55 0  0.6 0.55 0  0.65 0.55 0  0.7 0.55 0  0.75 0.55 0  0.8 0.55 0  0.85 0.55 0  0.9 0.55 0  0.95 0.55 0  1 0.55 0  0 0.6 0  0.05 0.6 0  0.1 0.6 0  0.15 0.6 0  0.2 0.6 0  0.25 0.6 0  0.3 0.6 0  0.35 0.6 0  0.4 0.6 0  0.45 0.6 0  0.5 0.6 0  0.55 0.6 0  0.6 0.6 0  0.65 0.6 0  0.7 0.6 0  0.75 0.6 0  0.8 0.6 0  0.85 0.6 0  0.9 0.6 0  0.95 0.6 0  1 0.6 0  0 0.65 0  0.05 0.65 0  0.1 0.65 0  0.15 0.65 0  0.2 0.65 0  0.25 0.65 0  0.3 0.65 0  0.35 0.65 0  0.4 0.65 0  0.45 0.65 0  0.5 0.65 0  0.55 0.65 0  0.6 0.65 0  0.65 0.65 0  0.7 0.65 0  0.75 0.65 0  0.8 0.65 0  0.85 0.65 0  0.9 0.65 0  0.95 0.65 0  1 0.65 0  0 0.7 0  0.05 0.7 0  0.1 0.7 0  0.15 0.7 0  0.2 0.7 0  0.25 0.7 0  0.3 0.7 0  0.35 0.7 0  0.4 0.7 0  0.45 0.7 0  0.5 0.7 0  0.55 0.7 0  0.6 0.7 0  0.65 0.7 0  0.7 0.7 0  0.75 0.7 0  0.8 0.7 0  0.85 0.7 0  0.9 0.7 0  0.95 0.7 0  1 0.7 0  0 0.75 0  0.05 0.75 0  0.1 0.75 0  0.15 0.75 0  0.2 0.75 0  0.25 0.75 0  0.3 0.75 0  0.35 0.75 0  0.4 0.75 0  0.45 0.75 0  0.5 0.75 0  0.55 0.75 0  0.6 0.75 0  0.65 0.75 0  0.7 0.75 0  0.75 0.75 0  0.8 0.75 0  0.85 0.75 0  0.9 0.75 0  0.95 0.75 0  1 0.75 0  0 0.8 0  0.05 0.8 0  0.1 0.8 0  0.15 0.8 0  0.2 0.8 0  0.25 0.8 0  0.3 0.8 0  0.35 0.8 0  0.4 0.8 0  0.45 0.8 0  0.5 0.8 0  0.55 0.8 0  0.6 0.8 0  0.65 0.8 0  0.7 0.8 0  0.75 0.8 0  0.8 0.8 0  0.85 0.8 0  0.9 0.8 0  0.95 0.8 0  1 0.8 0  0 0.85 0  0.05 0.85 0  0.1 0.85 0  0.15 0.85 0  0.2 0.85 0  0.25 0.85 0  0.3 0.85 0  0.35 0.85 0  0.4 0.85 0  0.45 0.85 0  0.5 0.85 0  0.55 0.85 0  0.6 0.85 0  0.65 0.85 0  0.7 0.85 0  0.75 0.85 0  0.8 0.85 0  0.85 0.85 0  0.9 0.85 0  0.95 0.85 0  1 0.85 0  0 0.9 0  0.05 0.9 0  0.1 0.9 0  0.15 0.9 0  0.2 0.9 0  0.25 0.9 0  0.3 0.9 0  0.35 0.9 0  0.4 0.9 0  0.45 0.9 0  0.5 0.9 0  0.55 0.9 0  0.6 0.9 0  0.65 0.9 0  0.7 0.9 0  0.75 0.9 0  0.8 0.9 0  0.85 0.9 0  0.9 0.9 0  0.95 0.9 0  1 0.9 0  0 0.95 0  0.05 0.95 0  0.1 0.95 0  0.15 0.95 0  0.2 0.95 0  0.25 0.95 0  0.3 0.95 0  0.35 0.95 0  0.4 0.95 0  0.45 0.95 0  0.5 0.95 0  0.55 0.95 0  0.6 0.95 0  0.65 0.95 0  0.7 0.95 0  0.75 0.95 0  0.8 0.95 0  0.85 0.95 0  0.9 0.95 0  0.95 0.95 0  1 0.95 0  0 1 0  0.05 1 0  0.1 1 0  0.15 1 0  0.2 1 0  0.25 1 0  0.3 1 0  0.35 1 0  0.4 1 0  0.45 1 0  0.5 1 0  0.55 1 0  0.6 1 0  0.65 1 0  0.7 1 0  0.75 1 0  0.8 1 0  0.85 1 0  0.9 1 0  0.95 1 0  1 1 0  </DataArray>
</Points>
<Cells>
[...]
<PointData  Scalars="f_6"> 
<DataArray  type="Float64"  Name="f_6"  format="ascii">-2.0000000000000000e+00  -1.8499999999999999e+00  -1.7000000000000000e+00  -1.5500000000000000e+00  -1.4000000000000001e+00  -1.2500000000000000e+00  -1.0999999999999999e+00  -9.5000000000000007e-01  -7.9999999999999993e-01  -6.5000000000000013e-01  -5.0000000000000000e-01  -3.4999999999999987e-01  -2.0000000000000007e-01  -4.9999999999999933e-02  9.9999999999999867e-02  2.5000000000000000e-01  4.0000000000000013e-01  5.4999999999999993e-01  7.0000000000000007e-01  8.4999999999999987e-01  1.0000000000000000e+00  -2.0000000000000000e+00  -1.4489314968706839e+00  -1.2255934644101036e+00  -1.0824506957340494e+00  -9.6869398741175794e-01  -8.6703170149983888e-01  -7.6963407093882541e-01  -6.7218156120548611e-01  -5.7193812320736925e-01  -4.6709568683057956e-01  -3.5660540300580057e-01  -2.4007976719823243e-01  -1.1745860878537177e-01  1.1481126227550943e-02  1.4618990481235627e-01  2.8506508587675150e-01  4.2623228445033001e-01  5.6875159992744906e-01  7.1210049441449541e-01  8.5593666501823917e-01  1.0000000000000000e+00  -2.0000000000000000e+00  -1.2869455536930305e+00  -1.0466249299327774e+00  -9.0558538519031440e-01  -7.9922672582527743e-01  -7.0751354377094688e-01  -6.2170260974416514e-01  -5.3704338137178831e-01  -4.5054143313972350e-01  -3.6015261297539652e-01  -2.6446686359038785e-01  -1.6250132295985936e-01  -5.3357297007200585e-02  6.3681379257286064e-02  1.8806160934424698e-01  3.1783815424431971e-01  4.5111245199711913e-01  5.8667362084497066e-01  7.2371371271229301e-01  8.6164616565846130e-01  1.0000000000000000e+00  -2.0000000000000000e+00  -1.1976791018650497e+00  -9.4841808212794587e-01  -8.0731049821004952e-01  -7.0274331906613641e-01  -6.1381348365265676e-01  -5.3166838959754459e-01  -4.5157927256875940e-01  -3.7058407352986494e-01  -2.8661336002804222e-01  -1.9809966417426433e-01  -1.0371185684077841e-01  -2.0756023689964794e-03  1.0755098902297998e-01  2.2453699906302604e-01  3.4711346975916119e-01  4.7370574844885577e-01  6.0311671874302153e-01  7.3443456993124434e-01  8.6693428490331281e-01  1.0000000000000000e+00  -2.0000000000000000e+00  -1.1411446836249968e+00  -8.8550293033069727e-01  -7.4341784872515226e-01  -6.3892714391510608e-01  -5.5068702859241625e-01  -4.6982872881016141e-01  -3.9167013410936213e-01  -3.1329099588714238e-01  -2.3261925718803284e-01  -1.4799870724293127e-01  -5.7888272464758493e-02  3.9219216435899575e-02  1.4390527019829719e-01  2.5542192812571607e-01  3.7237297728044305e-01  4.9348035329612083e-01  6.1765293574701541e-01  7.4397356336634934e-01  8.7165640402354605e-01  1.0000000000000000e+00  -2.0000000000000000e+00  -1.1027965060344933e+00  -8.4230884996607480e-01  -6.9901260477538518e-01  -5.9402603570357881e-01  -5.0573065153455232e-01  -4.2524911556259704e-01  -3.4792845434968811e-01  -2.7087239993860818e-01  -1.9200336228606965e-01  -1.0960618624887664e-01  -2.2006951087800430e-02  7.2208849500062719e-02  1.7342814974086013e-01  2.8087246596109816e-01  3.9347615794077412e-01  5.1018975170816905e-01  6.3004110758256937e-01  7.5215034376359247e-01  8.7571776782452115e-01  1.0000000000000000e+00  -2.0000000000000000e+00  -1.0760111723313284e+00  -8.1186432841909051e-01  -6.6743494466934827e-01  -5.6181767562947038e-01  -4.7321351499151260e-01  -3.9273701097470709e-01  -3.1575017156263013e-01  -2.3936737135128908e-01  -1.6150233991004989e-01  -8.0397964827605320e-02  5.6890227245634988e-03  9.8001047711385500e-02  1.9672601330398248e-01  3.0116362803704216e-01  4.1046943681338638e-01  5.2376138801321170e-01  6.4017139911150023e-01  7.5886893628093011e-01  8.7906432351094577e-01  1.0000000000000000e+00  -2.0000000000000000e+00  -1.0573389797244841e+00  -7.9053456787572918e-01  -6.4519231107133779e-01  -5.3900347910519963e-01  -4.5005366731820468e-01  -3.6945200613065238e-01  -2.9256802885870420e-01  -2.1651970991398431e-01  -1.3921137924265406e-01  -5.8854657856607595e-02  2.6305946517484007e-02  1.1735465387364973e-01  2.1431122772664202e-01  3.1658659606970163e-01  4.2347657326251736e-01  5.3421496441979088e-01  6.4801416456928895e-01  7.6408967873768174e-01  8.8167058993833169e-01  1.0000000000000000e+00  -2.0000000000000000e+00  -1.0448361228477456e+00  -7.7625989423149899e-01  -6.3029150622684305e-01  -5.2368458588688216e-01  -4.3445981074767104e-01  -3.5372583561097598e-01  -2.7685698494484295e-01  -2.0097221823214753e-01  -1.2396807963488597e-01  -4.4034219376773279e-02  4.0566820329639375e-02  1.3080039353908748e-01  2.2657764765923413e-01  3.2739495525260509e-01  4.3263529574719040e-01  5.4160773183414546e-01  6.5358061600818285e-01  7.6780502416217655e-01  8.8352835750469860e-01  1.0000000000000000e+00  -2.0000000000000000e+00  -1.0373763475169424e+00  -7.6784386873659916e-01  -6.2157035466578792e-01  -5.1474859852722887e-01  -4.2537723773959490e-01  -3.4457093180601622e-01  -2.6770893856684241e-01  -1.9191130123788405e-01  -1.1507006916917167e-01  -3.5362371277137379e-02  4.8931904956057912e-02  1.3870245229382691e-01  2.3380401411860197e-01  3.3378028153429440e-01  4.3806192263949417e-01  5.4600005116141792e-01  6.5689554346712054e-01  7.7002144439814346e-01  8.8463781591828672e-01  1.0000000000000000e+00  -2.0000000000000000e+00  -1.0343382862064101e+00  -7.6463276082315457e-01  -6.1839805758957511e-01  -5.1159397014328822e-01  -4.2223677830459982e-01  -3.4145486527878532e-01  -2.6463429046504799e-01  -1.8889779885271216e-01  -1.1213711490578904e-01  -3.2526077463909758e-02  5.1656022352831121e-02  1.4127349656156021e-01  2.3615567498705242e-01  3.3586023412647614e-01  4.3983206211507442e-01  5.4743500670491130e-01  6.5798006230073791e-01  7.7074739404499026e-01  8.8500146177030403e-01  1.0000000000000000e+00  -2.0000000000000000e+00  -1.0354624142900726e+00  -7.6637023712967300e-01  -6.2054025492818232e-01  -5.1400616907491026e-01  -4.2484178786644633e-01  -3.4419828299599897e-01  -2.6747148976391194e-01  -1.9178924760235652e-01  -1.1504753534392995e-01  -3.5426113302904905e-02  4.8816950993606632e-02  1.3857983661253059e-01  2.3368495514157109e-01  3.3367291786948328e-01  4.3797108498941600e-01  5.4592785124241450e-01  6.5684230498592888e-01  7.6998660771077543e-01  8.8462063711793903e-01  1.0000000000000000e+00  -2.0000000000000000e+00  -1.0408019466937366e+00  -7.7314969123565813e-01  -6.2811643495776914e-01  -5.2211963504409764e-01  -4.3333404732318209e-01  -3.5294449414409135e-01  -2.7636033829440421e-01  -2.0071712716803813e-01  -1.2391973328629667e-01  -4.4163386680890857e-02  4.0323672736867502e-02  1.3054394375338471e-01  2.2633139109721778e-01  3.2717539722047057e-01  4.3245150873069216e-01  5.4146300828940119e-01  6.5347469868978802e-01  7.6773609469424342e-01  8.8349447899067901e-01  1.0000000000000000e+00  -2.0000000000000000e+00  -1.0507452950133427e+00  -7.8544239229971613e-01  -6.4162998448648356e-01  -5.3644781609792014e-01  -4.4822277196599392e-01  -3.6818684388936895e-01  -2.9176720779279985e-01  -2.1610928167654514e-01  -1.3913093029556417e-01  -5.9052550840536351e-02  2.5909356462932180e-02  1.1694087456692301e-01  2.1392126827344449e-01  3.1624577118448927e-01  4.2319654442348092e-01  5.3399797449470987e-01  6.4785738678957960e-01  7.6398859338573100e-01  8.8162118415053381e-01  1.0000000000000000e+00  -2.0000000000000000e+00  -1.0661212454741336e+00  -8.0421568892353945e-01  -6.6208570157263491e-01  -5.5799558474049860e-01  -4.7049004103800968e-01  -3.9086601147593036e-01  -3.1457301258655390e-01  -2.3876697973972885e-01  -1.6138136264303779e-01  -8.0671028662506902e-02  5.1112387331453185e-03  9.7388929777931094e-02  1.9616703624514772e-01  3.0068987482056192e-01  4.1009092328403240e-01  5.2347495847637759e-01  6.3996828058809085e-01  7.5873970790856693e-01  8.7900166422572645e-01  1.0000000000000000e+00  -2.0000000000000000e+00  -1.0884427030503712e+00  -8.3120599891393543e-01  -6.9125881185328686e-01  -5.8851405584990535e-01  -5.0182737213152817e-01  -4.2258607029097411e-01  -3.4626641342252529e-01  -2.7003219988635346e-01  -1.9183251855622449e-01  -1.0996786052125823e-01  -2.2783588597283758e-02  7.1336569566508468e-02  1.7266807210865329e-01  2.8025576856857803e-01  3.9300231541570918e-01  5.0984265553867691e-01  6.2980106917783929e-01  7.5200029343471919e-01  8.7564576484380563e-01  1.0000000000000000e+00  -2.0000000000000000e+00  -1.1204527872269370e+00  -8.6953686603219449e-01  -7.3230191566869596e-01  -6.3107024197761574e-01  -5.4515824400698210e-01  -4.6608489698446676e-01  -3.8935743030941244e-01  -3.1213834166729371e-01  -2.3238798120718582e-01  -1.4846997684322946e-01  -5.8875669028241047e-02  3.8022999813151062e-02  1.4291291405437864e-01  2.5466281192938783e-01  3.7181991427154953e-01  4.9309227908478093e-01  6.1739304714987020e-01  7.4381463180866481e-01  8.7158110171477776e-01  1.0000000000000000e+00  -2.0000000000000000e+00  -1.1674924447715052e+00  -9.2529482742508717e-01  -7.9128383619357423e-01  -6.9147190715332496e-01  -6.0592180202487345e-01  -5.2636468397615110e-01  -4.4834579152301990e-01  -3.6900632717583770e-01  -2.8630672963881415e-01  -1.9870297205137513e-01  -1.0491656806524709e-01  -3.5980026950435109e-03  1.0629777236632240e-01  2.2366265082304587e-01  3.4652225065632031e-01  4.7331349937902717e-01  6.0286420852819544e-01  7.3428408493529107e-01  8.6686401020664161e-01  1.0000000000000000e+00  -2.0000000000000000e+00  -1.2417718742321862e+00  -1.0125608108669950e+00  -8.8203790375912028e-01  -7.8266136211898052e-01  -6.9592354465617512e-01  -6.1396853800268492e-01  -5.3241350669289877e-01  -4.4835333329522004e-01  -3.5974441778911381e-01  -2.6521532319955676e-01  -1.6389921163496451e-01  -5.5072694516359225e-02  6.2210921892139677e-02  1.8716776834015333e-01  3.1729293815165832e-01  4.5077525924681155e-01  5.8646620264859373e-01  7.2359348919766198e-01  8.6159085417649839e-01  1.0000000000000000e+00  -2.0000000000000000e+00  -1.3828032308067641e+00  -1.1771721059505285e+00  -1.0483885847951480e+00  -9.4415585365474120e-01  -8.4961463512416735e-01  -7.5806337508427935e-01  -6.6544983648794032e-01  -5.6891166390937054e-01  -4.6653173618084293e-01  -3.5739579024047613e-01  -2.4144067215291673e-01  -1.1896730952186937e-01  1.0144007271577956e-02  1.4550456249376992e-01  2.8470647436334873e-01  4.2602839680796684e-01  5.6863185362170632e-01  7.1203281503026494e-01  8.5590591730169074e-01  1.0000000000000000e+00  -2.0000000000000000e+00  -1.8499999999999999e+00  -1.7000000000000000e+00  -1.5500000000000000e+00  -1.4000000000000001e+00  -1.2500000000000000e+00  -1.0999999999999999e+00  -9.5000000000000007e-01  -7.9999999999999993e-01  -6.5000000000000013e-01  -5.0000000000000000e-01  -3.4999999999999987e-01  -2.0000000000000007e-01  -4.9999999999999933e-02  9.9999999999999867e-02  2.5000000000000000e-01  4.0000000000000013e-01  5.4999999999999993e-01  7.0000000000000007e-01  8.4999999999999987e-01  1.0000000000000000e+00  </DataArray> 
</PointData> 
</Piece>
</UnstructuredGrid>
</VTKFile>