<?xml version="1.0"?>
<VTKFile type="UnstructuredGrid"  version="0.1"  >
<UnstructuredGrid>
<Piece  NumberOfPoints="441" NumberOfCells="800">
<Points>
<DataArray  type="Float64"  NumberOfComponents="3"  format="ascii">0 0 0  0.05 0 0  0.1 0 0  0.15 0 0  0.2 0 0  0.25 0 0  0.3 0 0  0.35 0 0  0.4 0 0  0.45 0 0  0.5 0 0  0.55 0 0  0.6 0 0  0.65 0 0  0.7 0 0  0.75 0 0  0.8 0 0  0.85 0 0  0.9 0 0  0.95 0 0  1 0 0  0 0.05 0  0.05 0.05 0  0.1 0.05 0  0.15 0.05 0  0.2 0.05 0  0.25 0.05 0  0.3 0.05 0  0.35 0.05 0  0.4 0.05 0  0.45 0.05 0  0.5 0.05 0  0.55 0.05 0  0.6 0.05 0  0.65 0.05 0  0.7 0.05 0  0.75 0.05 0  0.8 0.05 0  0.85 0.05 0  0.9 0.05 0  0.95 0.05 0  1 0.05 0  0 0.1 0  0.05 0.1 0  0.1 0.1 0  0.15 0.1 0  0.2 0.1 0  0.25 0.1 0  0.3 0.1 0  0.35 0.1 0  0.4 0.1 0  0.45 0.1 0  0.5 0.1 0  0.55 0.1 0  0.6 0.1 0  0.65 0.1 0  0.7 0.1 0  0.75 0.1 0  0.8 0.1 0  0.85 0.1 0  0.9 0.1 0  0.95 0.1 0  1 0.1 0  0 0.15 0  0.05 0.15 0  0.1 0.15 0  0.15 0.15 0  0.2 0.15 0  0.25 0.15 0  0.3 0.15 0  0.35 0.15 0  0.4 0.15 0  0.45 0.15 0  0.5 0.15 0  0.55 0.15 0  0.6 0.15 0  0.65 0.15 0  0.7 0.15 0  0.75 0.15 0  0.8 0.15 0  0.85 0.15 0  0.9 0.15 0  0.95 0.15 0  1 0.15 0  0 0.2 0  0.05 0.2 0  0.1 0.2 0  0.15 0.2 0  0.2 0.2 0  0.25 0.2 0  0.3 0.2 0  0.35 0.2 0  0.4 0.2 0  0.45 0.2 0  0.5 0.2 0  0.55 0.2 0  0.6 0.2 0  0.65 0.2 0  0.7 0.2 0  0.75 0.2 0  0.8 0.2 0  0.85 0.2 0  0.9 0.2 0  0.95 0.2 0  1 0.2 0  0 0.25 0  0.05 0.25 0  0.1 0.25 0  0.15 0.25 0  0.2 0.25 0  0.25 0.25 0  0.3 0.25 0  0.35 0.25 0  0.4 0.25 0  0.45 0.25 0  0.5 0.25 0  0.55 0.25 0  0.6 0.25 0  0.65 0.25 0  0.7 0.25 0  0.75 0.25 0  0.8 0.25 0  0.85 0.25 0  0.9 0.25 0  0.95 0.25 0  1 0.25 0  0 0.3 0  0.05 0.3 0  0.1 0.3 0  0.15 0.3 0  0.2 0.3 0  0.25 0.3 0  0.3 0.3 0  0.35 0.3 0  0.4 0.3 0  0.45 0.3 0  0.5 0.3 0  0.55 0.3 0  0.6 0.3 0  0.65 0.3 0  0.7 0.3 0  0.75 0.3 0  0.8 0.3 0  0.85 0.3 0  0.9 0.3 0  0.95 0.3 0  1 0.3 0  0 0.35 0  0.05 0.35 0  0.1 0.35 0  0.15 0.35 0  0.2 0.35 0  0.25 0.35 0  0.3 0.35 0  0.35 0.35 0  0.4 0.35 0  0.45 0.35 0  0.5 0.35 0  0.55 0.35 0  0.6 0.35 0  0.65 0.35 0  0.7 0.35 0  0.75 0.35 0  0.8 0.35 0  0.85 0.35 0  0.9 0.35 0  0.95 0.35 0  1 0.35 0  0 0.4 0  0.05 0.4 0  0.1 0.4 0  0.15 0.4 0  0.2 0.4 0  0.25 0.4 0  0.3 0.4 0  0.35 0.4 0  0.4 0.4 0  0.45 0.4 0  0.5 0.4 0  0.55 0.4 0  0.6 0.4 0  0.65 0.4 0  0.7 0.4 0  0.75 0.4 0  0.8 0.4 0  0.85 0.4 0  0.9 0.4 0  0.95 0.4 0  1 0.4 0  0 0.45 0  0.05 0.45 0  0.1 0.45 0  0.15 0.45 0  0.2 0.45 0  0.25 0.45 0  0.3 0.45 0  0.35 0.45 0  0.4 0.45 0  0.45 0.45 0  0.5 0.45 0  0.55 0.45 0  0.6 0.45 0  0.65 0.45 0  0.7 0.45 0  0.75 0.45 0  0.8 0.45 0  0.85 0.45 0  0.9 0.45 0  0.95 0.45 0  1 0.45 0  0 0.5 0  0.05 0.5 0  0.1 0.5 0  0.15 0.5 0  0.2 0.5 0  0.25 0.5 0  0.3 0.5 0  0.35 0.5 0  0.4 0.5 0  0.45 0.5 0  0.5 0.5 0  0.55 0.5 0  0.6 0.5 0  0.65 0.5 0  0.7 0.5 0  0.75 0.5 0  0.8 0.5 0  0.85 0.5 0  0.9 0.5 0  0.95 0.5 0  1 0.5 0  0 0.55 0  0.05 0.55 0  0.1 0.55 0  0.15 0.55 0  0.2 0.55 0  0.25 0.55 0  0.3 0.55 0  0.35 0.55 0  0.4 0.55 0  0.45 0.55 0  0.5 0.55 0  0.55 0.55 0  0.6 0.55 0  0.65 0.55 0  0.7 0.55 0  0.75 0.55 0  0.8 0.55 0  0.85 0.55 0  0.9 0.55 0  0.95 0.55 0  1 0.55 0  0 0.6 0  0.05 0.6 0  0.1 0.6 0  0.15 0.6 0  0.2 0.6 0  0.25 0.6 0  0.3 0.6 0  0.35 0.6 0  0.4 0.6 0  0.45 0.6 0  0.5 0.6 0  0.55 0.6 0  0.6 0.6 0  0.65 0.6 0  0.7 0.6 0  0.75 0.6 0  0.8 0.6 0  0.85 0.6 0  0.9 0.6 0  0.95 0.6 0  1 0.6 0  0 0.65 0  0.05 0.65 0  0.1 0.65 0  0.15 0.65 0  0.2 0.65 0  0.25 0.65 0  0.3 0.65 0  0.35 0.65 0  0.4 0.65 0  0.45 0.65 0  0.5 0.65 0  0.55 0.65 0  0.6 0.65 0  0.65 0.65 0  0.7 0.65 0  0.75 0.65 0  0.8 0.65 0  0.85 0.65 0  0.9 0.65 0  0.95 0.65 0  1 0.65 0  0 0.7 0  0.05 0.7 0  0.1 0.7 0  0.15 0.7 0  0.2 0.7 0  0.25 0.7 0  0.3 0.7 0  0.35 0.7 0  0.4 0.7 0  0.45 0.7 0  0.5 0.7 0  0.55 0.7 0  0.6 0.7 0  0.65 0.7 0  0.7 0.7 0  0.75 0.7 0  0.8 0.7 0  0.85 0.7 0  0.9 0.7 0  0.95 0.7 0  1 0.7 0  0 0.75 0  0.05 0.75 0  0.1 0.75 0  0.15 0.75 0  0.2 0.75 0  0.25 0.75 0  0.3 0.75 0  0.35 0.75 0  0.4 0.75 0  0.45 0.75 0  0.5 0.75 0  0.55 0.75 0  0.6 0.75 0  0.65 0.75 0  0.7 0.75 0  0.75 0.75 0  0.8 0.75 0  0.85 0.75 0  0.9 0.75 0  0.95 0.75 0  1 0.75 0  0 0.8 0  0.05 0.8 0  0.1 0.8 0  0.15 0.8 0  0.2 0.8 0  0.25 0.8 0  0.3 0.8 0  0.35 0.8 0  0.4 0.8 0  0.45 0.8 0  0.5 0.8 0  0.55 0.8 0  0.6 0.8 0  0.65 0.8 0  0.7 0.8 0  0.75 0.8 0  0.8 0.8 0  0.85 0.8 0  0.9 0.8 0  0.95 0.8 0  1 0.8 0  0 0.85 0  0.05 0.85 0  0.1 0.85 0  0.15 0.85 0  0.2 0.85 0  0.25 0.85 0  0.3 0.85 0  0.35 0.85 0  0.4 0.85 0  0.45 0.85 0  0.5 0.85 0  0.55 0.85 0  0.6 0.85 0  0.65 0.85 0  0.7 0.85 0  0.75 0.85 0  0.8 0.85 0  0.85 0.85 0  0.9 0.85 0  0.95 0.85 0  1 0.85 0  0 0.9 0  0.05 0.9 0  0.1 0.9 0  0.15 0.9 0  0.2 0.9 0  0.25 0.9 0  0.3 0.9 0  0.35 0.9 0  0.4 0.9 0  0.45 0.9 0  0.5 0.9 0  0.55 0.9 0  0.6 0.9 0  0.65 0.9 0  0.7 0.9 0  0.75 0.9 0  0.8 0.9 0  0.85 0.9 0  0.9 0.9 0  0.95 0.9 0  1 0.9 0  0 0.95 0  0.05 0.95 0  0.1 0.95 0  0.15 0.95 0  0.2 0.95 0  0.25 0.95 0  0.3 0.95 0  0.35 0.95 0  0.4 0.95 0  0.45 0.95 0  0.5 0.95 0  0.55 0.95 0  0.6 0.95 0  0.65 0.95 0  0.7 0.95 0  0.75 0.95 0  0.8 0.95 0  0.85 0.95 0  0.9 0.95 0  0.95 0.95 0  1 0.95 0  0 1 0  0.05 1 0  0.1 1 0  0.15 1 0  0.2 1 0  0.25 1 0  0.3 1 0  0.35 1 0  0.4 1 0  0.45 1 0  0.5 1 0  0.55 1 0  0.6 1 0  0.65 1 0  0.7 1 0  0.75 1 0  0.8 1 0  0.85 1 0  0.9 1 0  0.95 1 0  1 1 0  </DataArray>
</Points>
<Cells>
[...]
<PointData  Scalars="f_6"> 
<DataArray  type="Float64"  Name="f_6"  format="ascii">-2.0000000000000000e+00  -1.8499999999999999e+00  -1.7000000000000000e+00  -1.5500000000000000e+00  -1.4000000000000001e+00  -1.2500000000000000e+00  -1.0999999999999999e+00  -9.5000000000000007e-01  -7.9999999999999993e-01  -6.5000000000000013e-01  -5.0000000000000000e-01  -3.4999999999999987e-01  -2.0000000000000007e-01  -4.9999999999999933e-02  9.9999999999999867e-02  2.5000000000000000e-01  4.0000000000000013e-01  5.4999999999999993e-01  7.0000000000000007e-01  8.4999999999999987e-01  1.0000000000000000e+00  -2.0000000000000000e+00  -1.7585295857878880e+00  -1.6237542706291086e+00  -1.4976800167789395e+00  -1.3606413966204192e+00  -1.2187605114322364e+00  -1.0744529025326601e+00  -9.2887628312535264e-01  -7.8285186299395237e-01  -6.3763218389946652e-01  -4.8625841653920243e-01  -3.3229841810155653e-01  -1.8421171362593214e-01  -3.5361219472548423e-02  1.1133266186987623e-01  2.5627894236726928e-01  4.0398241227669057e-01  5.5262222267233119e-01  7.0162566383174174e-01  8.5078315854506725e-01  1.0000000000000000e+00  -1.9999999999999998e+00  -1.7491614047098849e+00  -1.6097496059866525e+00  -1.4806566513193853e+00  -1.3449970428896585e+00  -1.2051631045633935e+00  -1.0627381241906049e+00  -9.1869266445804065e-01  -7.7362414955469705e-01  -6.2775276514172673e-01  -4.7997589097807908e-01  -3.2858162587365070e-01  -1.8072508815011296e-01  -3.3377966475040870e-02  1.1340460268906169e-01  2.5980069532251021e-01  4.0702848406716136e-01  5.5488081458089267e-01  7.0309727410956790e-01  8.5150697034852763e-01  1.0000000000000000e+00  -2.0000000000000000e+00  -1.7388073136313358e+00  -1.6042587042993937e+00  -1.4701999396222905e+00  -1.3335270190554371e+00  -1.1941567397410764e+00  -1.0526438252083250e+00  -9.0953210096150883e-01  -7.6519930562506899e-01  -6.1977883613466500e-01  -4.7306100293867637e-01  -3.2509849357344911e-01  -1.7778178287253801e-01  -3.0830160966564046e-02  1.1586302003890148e-01  2.6249075216654860e-01  4.0945001408855175e-01  5.5677527747451072e-01  7.0437564767710981e-01  8.5214744873947623e-01  1.0000000000000000e+00  -2.0000000000000000e+00  -1.7331951818071483e+00  -1.5982779579572968e+00  -1.4623573838149453e+00  -1.3247543539687237e+00  -1.1852930101371497e+00  -1.0441483359401094e+00  -9.0159260855459999e-01  -7.5786213584940465e-01  -6.1310227083318769e-01  -4.6739079106851217e-01  -3.2096956260893184e-01  -1.7447338880002561e-01  -2.8023914557579122e-02  1.1838688626655991e-01  2.6484927921623114e-01  4.1150554264598649e-01  5.5839463355148899e-01  7.0548259038488437e-01  8.5270717693226761e-01  1.0000000000000000e+00  -1.9999999999999998e+00  -1.7294000541504544e+00  -1.5933005619077008e+00  -1.4561972837114707e+00  -1.3178400028673620e+00  -1.1781126108986897e+00  -1.0370638998603614e+00  -8.9482786146737670e-01  -7.5155435838476237e-01  -6.0737732028016900e-01  -4.6243032789325289e-01  -3.1691557699374079e-01  -1.7111829516105317e-01  -2.5178994730287053e-02  1.2085916036868645e-01  2.6701393578582977e-01  4.1332824372767379e-01  5.5981512370057485e-01  7.0645290337867073e-01  8.5319866860471083e-01  1.0000000000000000e+00  -1.9999999999999998e+00  -1.7265635659882406e+00  -1.5893269518115816e+00  -1.4512911862558742e+00  -1.3122957628905652e+00  -1.1722535307298847e+00  -1.0311667911352704e+00  -8.8910057906978279e-01  -7.4615011594209990e-01  -6.0242232400947360e-01  -4.5803762323058933e-01  -3.1314412231172589e-01  -1.6790522012015896e-01  -2.2432929571202707e-02  1.2321481415264351e-01  2.6901905983072771e-01  4.1497837277830391e-01  5.6108471414446637e-01  7.0731523082451320e-01  8.5363459410790565e-01  1.0000000000000000e+00  -2.0000000000000000e+00  -1.7243483628640635e+00  -1.5861524930945101e+00  -1.4473447466098783e+00  -1.3077983317091404e+00  -1.1674389579950140e+00  -1.0262491548810537e+00  -8.8425754773438403e-01  -7.4152320230438196e-01  -5.9812423658503577e-01  -4.5415371870790483e-01  -3.0971806890241516e-01  -1.6492553343665378e-01  -1.9862317587008616e-02  1.2541396598236290e-01  2.7086911660613366e-01  4.1648147341034797e-01  5.6223012927447391e-01  7.0808871166700993e-01  8.5402447700239825e-01  1.0000000000000000e+00  -2.0000000000000000e+00  -1.7225764233786396e+00  -1.5835899110925182e+00  -1.4441369753799889e+00  -1.3041138593411044e+00  -1.1634548146599770e+00  -1.0221333226595473e+00  -8.8015725468231798e-01  -7.3756090895600812e-01  -5.9439770131838254e-01  -4.5073494611357967e-01  -3.0664890115337640e-01  -1.6221652713703213e-01  -1.7504773322541165e-02  1.2743425075768339e-01  2.7256196720109599e-01  4.1784827498248023e-01  5.6326561787607188e-01  7.0878500956665436e-01  8.5437460223467743e-01  1.0000000000000000e+00  -1.9999999999999998e+00  -1.7211333498452233e+00  -1.5814937525169341e+00  -1.4414993844764552e+00  -1.3010653156153116e+00  -1.1601331186442416e+00  -1.0186720664148414e+00  -8.7667723937933140e-01  -7.3416547751895023e-01  -5.9117071361890716e-01  -4.4773946327465441e-01  -3.0392606246047893e-01  -1.5978690063555692e-01  -1.5374499323807553e-02  1.2926584316981604e-01  2.7409622645808635e-01  4.1908404144240469e-01  5.6419905768067913e-01  7.0941110648885808e-01  8.5468892236965754e-01  1.0000000000000000e+00  -2.0000000000000000e+00  -1.7199369960992030e+00  -1.5797523646535423e+00  -1.4393014943935853e+00  -1.2985148999994462e+00  -1.1573402778868367e+00  -1.0157445849762456e+00  -8.7371415890121640e-01  -7.3125304812155512e-01  -5.8838021236364157e-01  -4.4512613090565190e-01  -3.0152898477832824e-01  -1.5763051362090899e-01  -1.3472166506948472e-02  1.3090739478730234e-01  2.7547305401902888e-01  4.2019260664837293e-01  5.6503546491538248e-01  7.0997143633844073e-01  8.5496998075509523e-01  1.0000000000000000e+00  -1.9999999999999998e+00  -1.7189235874346218e+00  -1.5782772156044480e+00  -1.4374393284448976e+00  -1.2963525121020516e+00  -1.1549685079274128e+00  -1.0132518367020884e+00  -8.7118176312773377e-01  -7.2875234370241282e-01  -5.8597095680845268e-01  -4.4285586320598302e-01  -2.9943323212627332e-01  -1.5573400256280209e-01  -1.1791047870379915e-02  1.3236284846731325e-01  2.7669598818235408e-01  4.2117786621667530e-01  5.6577875899403862e-01  7.1046919319442692e-01  8.5521956431228285e-01  1.0000000000000000e+00  -2.0000000000000000e+00  -1.7180391642346966e+00  -1.5769935818847314e+00  -1.4358260916795051e+00  -1.2944873120364495e+00  -1.1529294050186745e+00  -1.0111124907769615e+00  -8.6900871320521766e-01  -7.2660360675191005e-01  -5.8389540796177264e-01  -4.4089313298355431e-01  -2.9761407795798039e-01  -1.5408121663364577e-01  -1.0320870879082646e-02  1.3363905876997678e-01  2.7777018402639903e-01  4.2204411104193545e-01  5.6643251164966990e-01  7.1090701313294613e-01  8.5543908329960883e-01  1.0000000000000000e+00  -1.9999999999999998e+00  -1.7172321226946148e+00  -1.5758318560202769e+00  -1.4343841443519432e+00  -1.2928412393455675e+00  -1.1511493093338745e+00  -1.0092600081818655e+00  -8.6713699216426510e-01  -7.2475796213823740e-01  -5.8211393530317301e-01  -4.3920718280848148e-01  -2.9604873008844867e-01  -1.5265591513471777e-01  -9.0502777822819847e-03  1.3474407346527778e-01  2.7870157811132967e-01  4.2279588227499731e-01  5.6700016342976045e-01  7.1128726438807888e-01  8.5562975575320643e-01  1.0000000000000000e+00  -2.0000000000000000e+00  -1.7164438568015608e+00  -1.5747175751498177e+00  -1.4330373903624223e+00  -1.2913441916600030e+00  -1.1495665847893910e+00  -1.0076412404523609e+00  -8.6552128513173943e-01  -7.2317731433360155e-01  -5.8059518830420032e-01  -4.3777293285874996e-01  -2.9471774445261534e-01  -1.5144343603449442e-01  -7.9683985806056068e-03  1.3568593476208704e-01  2.7949617267864457e-01  4.2343767651696346e-01  5.6748499540629627e-01  7.1161212523640271e-01  8.5579267532513870e-01  1.0000000000000000e+00  -2.0000000000000000e+00  -1.7155926227911966e+00  -1.5735571974150113e+00  -1.4317036502879261e+00  -1.2899315521426316e+00  -1.1481315977113269e+00  -1.0062170837064477e+00  -8.6412959357672958e-01  -7.2183482176022939e-01  -5.7931657072127662e-01  -4.3657161586970272e-01  -2.9360587882876876e-01  -1.5043168597003864e-01  -7.0658152677333195e-03  1.3647189148503194e-01  2.8015950132419815e-01  4.2397365570791534e-01  5.6789001644205883e-01  7.1188356582609724e-01  8.5592882031094586e-01  1.0000000000000000e+00  -1.9999999999999998e+00  -1.7145386503990463e+00  -1.5722149414311044e+00  -1.4302884612316393e+00  -1.2885467689112693e+00  -1.1468111702068366e+00  -1.0049659030853724e+00  -8.6294518370850193e-01  -7.2071580840930960e-01  -5.7826465695097418e-01  -4.3559108107001571e-01  -2.9270246902271879e-01  -1.4961161374915766e-01  -6.3350680053213078e-03  1.3710794512157629e-01  2.8069628542520064e-01  4.2440742854844060e-01  5.6821784882792692e-01  7.1210330131498101e-01  8.5603904009254850e-01  1.0000000000000000e+00  -2.0000000000000000e+00  -1.7129954937273060e+00  -1.5704754566787207e+00  -1.4286884842962573e+00  -1.2871558920639703e+00  -1.1456004111193776e+00  -1.0038901747197035e+00  -8.6196942976259594e-01  -7.1981857121753301e-01  -5.7743516760329427e-01  -4.3482558243666714e-01  -2.9200130244293326e-01  -1.4897723199855165e-01  -5.7707881259709002e-03  1.3759867158139427e-01  2.8111026670658762e-01  4.2474192423271945e-01  5.6847064900622746e-01  7.1227275051335159e-01  8.5612403874426746e-01  1.0000000000000000e+00  -1.9999999999999998e+00  -1.7102728486714389e+00  -1.5680029072602160e+00  -1.4268341272106986e+00  -1.2857879039289766e+00  -1.1445444074869993e+00  -1.0030249549114696e+00  -8.6122378940464483e-01  -7.1915387909493267e-01  -5.7683185980800256e-01  -4.3427477863042624e-01  -2.9149992631379584e-01  -1.4852522367614468e-01  -5.3695240814051635e-03  1.3794726262338433e-01  2.8140418558703617e-01  4.2497935266962195e-01  5.6865007245091237e-01  7.1239301298793056e-01  8.5618436437116918e-01  1.0000000000000000e+00  -2.0000000000000000e+00  -1.7044370074218540e+00  -1.5644291964800052e+00  -1.4248572133573456e+00  -1.2846171889542393e+00  -1.1437643599881737e+00  -1.0024414480345298e+00  -8.6074689384958103e-01  -7.1874129594955094e-01  -5.7646361390335710e-01  -4.3394174596323931e-01  -2.9119840050568019e-01  -1.4825421231082578e-01  -5.1293471468897124e-03  1.3815571740651245e-01  2.8157986034855081e-01  4.2512122840781935e-01  5.6875727513987062e-01  7.1246486461628855e-01  8.5622040575247882e-01  1.0000000000000000e+00  -2.0000000000000000e+00  -1.6892718977779797e+00  -1.5604196578806071e+00  -1.4235483407844396e+00  -1.2840592785424609e+00  -1.1434543954769263e+00  -1.0022295833888959e+00  -8.6058104200959795e-01  -7.1860079695033374e-01  -5.7633955389263547e-01  -4.3383019081349367e-01  -2.9109771743486046e-01  -1.4816387791458824e-01  -5.0493696018406456e-03  1.3822509380100476e-01  2.8163830999283512e-01  4.2516842547323414e-01  5.6879293508446249e-01  7.1248876458487442e-01  8.5623239402245799e-01  1.0000000000000000e+00  </DataArray> 
</PointData> 
</Piece>
</UnstructuredGrid>
</VTKFile>