<?xml version="1.0"?>
<VTKFile type="UnstructuredGrid"  version="0.1"  >
<UnstructuredGrid>
<Piece  NumberOfPoints="4225" NumberOfCells="8192">
<Points>
<DataArray  type="Float64"  NumberOfComponents="3"  format="ascii">0 0 0  0.015625 0 0  0.03125 0 0  0.046875 0 0  0.0625 0 0  0.078125 0 0  0.09375 0 0  0.109375 0 0  0.125 0 0  0.140625 0 0  0.15625 0 0  0.171875 0 0  0.1875 0 0  0.203125 0 0  0.21875 0 0  0.234375 0 0  0.25 0 0  0.265625 0 0  0.28125 0 0  0.296875 0 0  0.3125 0 0  0.328125 0 0  0.34375 0 0  0.359375 0 0  0.375 0 0  0.390625 0 0  0.40625 0 0  0.421875 0 0  0.4375 0 0  0.453125 0 0  0.46875 0 0  0.484375 0 0  0.5 0 0  0.515625 0 0  0.53125 0 0  0.546875 0 0  0.5625 0 0  0.578125 0 0  0.59375 0 0  0.609375 0 0  0.625 0 0  0.640625 0 0  0.65625 0 0  0.671875 0 0  0.6875 0 0  0.703125 0 0  0.71875 0 0  0.734375 0 0  0.75 0 0  0.765625 0 0  0.78125 0 0  0.796875 0 0  0.8125 0 0  0.828125 0 0  0.84375 0 0  0.859375 0 0  0.875 0 0  0.890625 0 0  0.90625 0 0  0.921875 0 0  0.9375 0 0  0.953125 0 0  0.96875 0 0  0.984375 0 0  1 0 0  0 0.015625 0  0.015625 0.015625 0  0.03125 0.015625 0  0.046875 0.015625 0  0.0625 0.015625 0  0.078125 0.015625 0  0.09375 0.015625 0  0.109375 0.015625 0  0.125 0.015625 0  0.140625 0.015625 0  0.15625 0.015625 0  0.171875 0.015625 0  0.1875 0.015625 0  0.203125 0.015625 0  0.21875 0.015625 0  0.234375 0.015625 0  0.25 0.015625 0  0.265625 0.015625 0  0.28125 0.015625 0  0.296875 0.015625 0  0.3125 0.015625 0  0.328125 0.015625 0  0.34375 0.015625 0  0.359375 0.015625 0  0.375 0.015625 0  0.390625 0.015625 0  0.40625 0.015625 0  0.421875 0.015625 0  0.4375 0.015625 0  0.453125 0.015625 0  0.46875 0.015625 0  0.484375 0.015625 0  0.5 0.015625 0  0.515625 0.015625 0  0.53125 0.015625 0  0.546875 0.015625 0  0.5625 0.015625 0  0.578125 0.015625 0  0.59375 0.015625 0  0.609375 0.015625 0  0.625 0.015625 0  0.640625 0.015625 0  0.65625 0.015625 0  0.671875 0.015625 0  0.6875 0.015625 0  0.703125 0.015625 0  0.71875 0.015625 0  0.734375 0.015625 0  0.75 0.015625 0  0.765625 0.015625 0  0.78125 0.015625 0  0.796875 0.015625 0  0.8125 0.015625 0  0.828125 0.015625 0  0.84375 0.015625 0  0.859375 0.015625 0  0.875 0.015625 0  0.890625 0.015625 0  0.90625 0.015625 0  0.921875 0.015625 0  0.9375 0.015625 0  0.953125 0.015625 0  0.96875 0.015625 0  0.984375 0.015625 0  1 0.015625 0  0 0.03125 0  0.015625 0.03125 0  0.03125 0.03125 0  0.046875 0.03125 0  0.0625 0.03125 0  0.078125 0.03125 0  0.09375 0.03125 0  0.109375 0.03125 0  0.125 0.03125 0  0.140625 0.03125 0  0.15625 0.03125 0  0.171875 0.03125 0  0.1875 0.03125 0  0.203125 0.03125 0  0.21875 0.03125 0  0.234375 0.03125 0  0.25 0.03125 0  0.265625 0.03125 0  0.28125 0.03125 0  0.296875 0.03125 0  0.3125 0.03125 0  0.328125 0.03125 0  0.34375 0.03125 0  0.359375 0.03125 0  0.375 0.03125 0  0.390625 0.03125 0  0.40625 0.03125 0  0.421875 0.03125 0  0.4375 0.03125 0  0.453125 0.03125 0  0.46875 0.03125 0  0.484375 0.03125 0  0.5 0.03125 0  0.515625 0.03125 0  0.53125 0.03125 0  0.546875 0.03125 0  0.5625 0.03125 0  0.578125 0.03125 0  0.59375 0.03125 0  0.609375 0.03125 0  0.625 0.03125 0  0.640625 0.03125 0  0.65625 0.03125 0  0.671875 0.03125 0  0.6875 0.03125 0  0.703125 0.03125 0  0.71875 0.03125 0  0.734375 0.03125 0  0.75 0.03125 0  0.765625 0.03125 0  0.78125 0.03125 0  0.796875 0.03125 0  0.8125 0.03125 0  0.828125 0.03125 0  0.84375 0.03125 0  0.859375 0.03125 0  0.875 0.03125 0  0.890625 0.03125 0  0.90625 0.03125 0  0.921875 0.03125 0  0.9375 0.03125 0  0.953125 0.03125 0  0.96875 0.03125 0  0.984375 0.03125 0  1 0.03125 0  0 0.046875 0  0.015625 0.046875 0  0.03125 0.046875 0  0.046875 0.046875 0  0.0625 0.046875 0  0.078125 0.046875 0  0.09375 0.046875 0  0.109375 0.046875 0  0.125 0.046875 0  0.140625 0.046875 0  0.15625 0.046875 0  0.171875 0.046875 0  0.1875 0.046875 0  0.203125 0.046875 0  0.21875 0.046875 0  0.234375 0.046875 0  0.25 0.046875 0  0.265625 0.046875 0  0.28125 0.046875 0  0.296875 0.046875 0  0.3125 0.046875 0  0.328125 0.046875 0  0.34375 0.046875 0  0.359375 0.046875 0  0.375 0.046875 0  0.390625 0.046875 0  0.40625 0.046875 0  0.421875 0.046875 0  0.4375 0.046875 0  0.453125 0.046875 0  0.46875 0.046875 0  0.484375 0.046875 0  0.5 0.046875 0  0.515625 0.046875 0  0.53125 0.046875 0  0.546875 0.046875 0  0.5625 0.046875 0  0.578125 0.046875 0  0.59375 0.046875 0  0.609375 0.046875 0  0.625 0.046875 0  0.640625 0.046875 0  0.65625 0.046875 0  0.671875 0.046875 0  0.6875 0.046875 0  0.703125 0.046875 0  0.71875 0.046875 0  0.734375 0.046875 0  0.75 0.046875 0  0.765625 0.046875 0  0.78125 0.046875 0  0.796875 0.046875 0  0.8125 0.046875 0  0.828125 0.046875 0  0.84375 0.046875 0  0.859375 0.046875 0  0.875 0.046875 0  0.890625 0.046875 0  0.90625 0.046875 0  0.921875 0.046875 0  0.9375 0.046875 0  0.953125 0.046875 0  0.96875 0.046875 0  0.984375 0.046875 0  1 0.046875 0  0 0.0625 0  0.015625 0.0625 0  0.03125 0.0625 0  0.046875 0.0625 0  0.0625 0.0625 0  0.078125 0.0625 0  0.09375 0.0625 0  0.109375 0.0625 0  0.125 0.0625 0  0.140625 0.0625 0  0.15625 0.0625 0  0.171875 0.0625 0  0.1875 0.0625 0  0.203125 0.0625 0  0.21875 0.0625 0  0.234375 0.0625 0  0.25 0.0625 0  0.265625 0.0625 0  0.28125 0.0625 0  0.296875 0.0625 0  0.3125 0.0625 0  0.328125 0.0625 0  0.34375 0.0625 0  0.359375 0.0625 0  0.375 0.0625 0  0.390625 0.0625 0  0.40625 0.0625 0  0.421875 0.0625 0  0.4375 0.0625 0  0.453125 0.0625 0  0.46875 0.0625 0  0.484375 0.0625 0  0.5 0.0625 0  0.515625 0.0625 0  0.53125 0.0625 0  0.546875 0.0625 0  0.5625 0.0625 0  0.578125 0.0625 0  0.59375 0.0625 0  0.609375 0.0625 0  0.625 0.0625 0  0.640625 0.0625 0  0.65625 0.0625 0  0.671875 0.0625 0  0.6875 0.0625 0  0.703125 0.0625 0  0.71875 0.0625 0  0.734375 0.0625 0  0.75 0.0625 0  0.765625 0.0625 0  0.78125 0.0625 0  0.796875 0.0625 0  0.8125 0.0625 0  0.828125 0.0625 0  0.84375 0.0625 0  0.859375 0.0625 0  0.875 0.0625 0  0.890625 0.0625 0  0.90625 0.0625 0  0.921875 0.0625 0  0.9375 0.0625 0  0.953125 0.0625 0  0.96875 0.0625 0  0.984375 0.0625 0  1 0.0625 0  0 0.078125 0  0.015625 0.078125 0  0.03125 0.078125 0  0.046875 0.078125 0  0.0625 0.078125 0  0.078125 0.078125 0  0.09375 0.078125 0  0.109375 0.078125 0  0.125 0.078125 0  0.140625 0.078125 0  0.15625 0.078125 0  0.171875 0.078125 0  0.1875 0.078125 0  0.203125 0.078125 0  0.21875 0.078125 0  0.234375 0.078125 0  0.25 0.078125 0  0.265625 0.078125 0  0.28125 0.078125 0  0.296875 0.078125 0  0.3125 0.078125 0  0.328125 0.078125 0  0.34375 0.078125 0  0.359375 0.078125 0  0.375 0.078125 0  0.390625 0.078125 0  0.40625 0.078125 0  0.421875 0.078125 0  0.4375 0.078125 0  0.453125 0.078125 0  0.46875 0.078125 0  0.484375 0.078125 0  0.5 0.078125 0  0.515625 0.078125 0  0.53125 0.078125 0  0.546875 0.078125 0  0.5625 0.078125 0  0.578125 0.078125 0  0.59375 0.078125 0  0.609375 0.078125 0  0.625 0.078125 0  0.640625 0.078125 0  0.65625 0.078125 0  0.671875 0.078125 0  0.6875 0.078125 0  0.703125 0.078125 0  0.71875 0.078125 0  0.734375 0.078125 0  0.75 0.078125 0  0.765625 0.078125 0  0.78125 0.078125 0  0.796875 0.078125 0  0.8125 0.078125 0  0.828125 0.078125 0  0.84375 0.078125 0  0.859375 0.078125 0  0.875 0.078125 0  0.890625 0.078125 0  0.90625 0.078125 0  0.921875 0.078125 0  0.9375 0.078125 0  0.953125 0.078125 0  0.96875 0.078125 0  0.984375 0.078125 0  1 0.078125 0  0 0.09375 0  0.015625 0.09375 0  0.03125 0.09375 0  0.046875 0.09375 0  0.0625 0.09375 0  0.078125 0.09375 0  0.09375 0.09375 0  0.109375 0.09375 0  0.125 0.09375 0  0.140625 0.09375 0  0.15625 0.09375 0  0.171875 0.09375 0  0.1875 0.09375 0  0.203125 0.09375 0  0.21875 0.09375 0  0.234375 0.09375 0  0.25 0.09375 0  0.265625 0.09375 0  0.28125 0.09375 0  0.296875 0.09375 0  0.3125 0.09375 0  0.328125 0.09375 0  0.34375 0.09375 0  0.359375 0.09375 0  0.375 0.09375 0  0.390625 0.09375 0  0.40625 0.09375 0  0.421875 0.09375 0  0.4375 0.09375 0  0.453125 0.09375 0  0.46875 0.09375 0  0.484375 0.09375 0  0.5 0.09375 0  0.515625 0.09375 0  0.53125 0.09375 0  0.546875 0.09375 0  0.5625 0.09375 0  0.578125 0.09375 0  0.59375 0.09375 0  0.609375 0.09375 0  0.625 0.09375 0  0.640625 0.09375 0  0.65625 0.09375 0  0.671875 0.09375 0  0.6875 0.09375 0  0.703125 0.09375 0  0.71875 0.09375 0  0.734375 0.09375 0  0.75 0.09375 0  0.765625 0.09375 0  0.78125 0.09375 0  0.796875 0.09375 0  0.8125 0.09375 0  0.828125 0.09375 0  0.84375 0.09375 0  0.859375 0.09375 0  0.875 0.09375 0  0.890625 0.09375 0  0.90625 0.09375 0  0.921875 0.09375 0  0.9375 0.09375 0  0.953125 0.09375 0  0.96875 0.09375 0  0.984375 0.09375 0  1 0.09375 0  0 0.109375 0  0.015625 0.109375 0  0.03125 0.109375 0  0.046875 0.109375 0  0.0625 0.109375 0  0.078125 0.109375 0  0.09375 0.109375 0  0.109375 0.109375 0  0.125 0.109375 0  0.140625 0.109375 0  0.15625 0.109375 0  0.171875 0.109375 0  0.1875 0.109375 0  0.203125 0.109375 0  0.21875 0.109375 0  0.234375 0.109375 0  0.25 0.109375 0  0.265625 0.109375 0  0.28125 0.109375 0  0.296875 0.109375 0  0.3125 0.109375 0  0.328125 0.109375 0  0.34375 0.109375 0  0.359375 0.109375 0  0.375 0.109375 0  0.390625 0.109375 0  0.40625 0.109375 0  0.421875 0.109375 0  0.4375 0.109375 0  0.453125 0.109375 0  0.46875 0.109375 0  0.484375 0.109375 0  0.5 0.109375 0  0.515625 0.109375 0  0.53125 0.109375 0  0.546875 0.109375 0  0.5625 0.109375 0  0.578125 0.109375 0  0.59375 0.109375 0  0.609375 0.109375 0  0.625 0.109375 0  0.640625 0.109375 0  0.65625 0.109375 0  0.671875 0.109375 0  0.6875 0.109375 0  0.703125 0.109375 0  0.71875 0.109375 0  0.734375 0.109375 0  0.75 0.109375 0  0.765625 0.109375 0  0.78125 0.109375 0  0.796875 0.109375 0  0.8125 0.109375 0  0.828125 0.109375 0  0.84375 0.109375 0  0.859375 0.109375 0  0.875 0.109375 0  0.890625 0.109375 0  0.90625 0.109375 0  0.921875 0.109375 0  0.9375 0.109375 0  0.953125 0.109375 0  0.96875 0.109375 0  0.984375 0.109375 0  1 0.109375 0  0 0.125 0  0.015625 0.125 0  0.03125 0.125 0  0.046875 0.125 0  0.0625 0.125 0  0.078125 0.125 0  0.09375 0.125 0  0.109375 0.125 0  0.125 0.12
[...]
<PointData  Scalars="f_6"> 
<DataArray  type="Float64"  Name="f_6"  format="ascii">-2.0000000000000000e+00  -1.9531250000000000e+00  -1.9062500000000000e+00  -1.8593750000000000e+00  -1.8125000000000000e+00  -1.7656250000000000e+00  -1.7187500000000000e+00  -1.6718750000000000e+00  -1.6250000000000000e+00  -1.5781250000000000e+00  -1.5312500000000000e+00  -1.4843750000000000e+00  -1.4375000000000000e+00  -1.3906250000000000e+00  -1.3437500000000000e+00  -1.2968750000000000e+00  -1.2500000000000000e+00  -1.2031250000000000e+00  -1.1562500000000000e+00  -1.1093750000000000e+00  -1.0625000000000000e+00  -1.0156250000000000e+00  -9.6875000000000000e-01  -9.2187500000000000e-01  -8.7500000000000000e-01  -8.2812500000000000e-01  -7.8125000000000000e-01  -7.3437500000000000e-01  -6.8750000000000000e-01  -6.4062500000000000e-01  -5.9375000000000000e-01  -5.4687500000000000e-01  -5.0000000000000000e-01  -4.5312500000000000e-01  -4.0625000000000000e-01  -3.5937500000000000e-01  -3.1250000000000000e-01  -2.6562500000000000e-01  -2.1874999999999997e-01  -1.7187500000000000e-01  -1.2500000000000000e-01  -7.8125000000000000e-02  -3.1250000000000000e-02  1.5625000000000000e-02  6.2500000000000000e-02  1.0937500000000000e-01  1.5625000000000000e-01  2.0312500000000000e-01  2.5000000000000000e-01  2.9687500000000000e-01  3.4375000000000000e-01  3.9062500000000000e-01  4.3750000000000000e-01  4.8437500000000000e-01  5.3125000000000000e-01  5.7812500000000000e-01  6.2500000000000000e-01  6.7187500000000000e-01  7.1875000000000000e-01  7.6562500000000000e-01  8.1250000000000000e-01  8.5937500000000000e-01  9.0625000000000000e-01  9.5312500000000000e-01  1.0000000000000000e+00  -2.0000000000000000e+00  -1.9132716658737903e+00  -1.8332348051255694e+00  -1.7584625965477227e+00  -1.6880329977417659e+00  -1.6212761659249704e+00  -1.5576724986252881e+00  -1.4968033053557668e+00  -1.4383231042707572e+00  -1.3819422133752894e+00  -1.3274148897523190e+00  -1.2745307722223507e+00  -1.2231084505862004e+00  -1.1729904887348328e+00  -1.1240394884623146e+00  -1.0761349247690593e+00  -1.0291705686031825e+00  -9.8305236629988713e-01  -9.3769668008512941e-01  -8.9302881826271485e-01  -8.4898180133317713e-01  -8.0549532391818179e-01  -7.6251488375451415e-01  -7.1999105952166254e-01  -6.7787893017701306e-01  -6.3613764164727371e-01  -5.9473014545711222e-01  -5.5362316305904324e-01  -5.1278747115239964e-01  -4.7219863706902571e-01  -4.3183826965630356e-01  -3.9169545668937983e-01  -3.5176699669195027e-01  -3.1205374428311450e-01  -2.7255365673156068e-01  -2.3327079185267005e-01  -1.9426698444718921e-01  -1.5564965151472318e-01  -1.1735351856190690e-01  -7.9135985531070735e-02  -4.4581054215626581e-02  -1.1929432978633506e-02  2.1762042661510803e-02  5.7385031317033777e-02  9.6133355057449299e-02  1.3800959271709562e-01  1.8130769611828551e-01  2.2537320713272674e-01  2.6991170031827960e-01  3.1477041291229296e-01  3.5986038969790157e-01  4.0512503570607961e-01  4.5052583658535261e-01  4.9603517881653164e-01  5.4163242076914464e-01  5.8730158908500441e-01  6.3302994966249992e-01  6.7880707861664125e-01  7.2462423354901373e-01  7.7047391258557307e-01  8.1634953460942694e-01  8.6224519957698320e-01  9.0815550247946397e-01  9.5407538322715602e-01  1.0000000000000000e+00  -2.0000000000000000e+00  -1.8765486016157877e+00  -1.7679240194438506e+00  -1.6707163347967833e+00  -1.5825756325502536e+00  -1.5018034701428213e+00  -1.4271250324419500e+00  -1.3575554643768413e+00  -1.2923167743193464e+00  -1.2307834276886345e+00  -1.1724451661982691e+00  -1.1168807050434952e+00  -1.0637385984345773e+00  -1.0127229985337947e+00  -9.6358285373568231e-01  -9.1610358384054391e-01  -8.7010057605619950e-01  -8.2541404343653491e-01  -7.8190491885769486e-01  -7.3945154762067089e-01  -6.9794700518859254e-01  -6.5729691286463321e-01  -6.1741765964824702e-01  -5.7823496742089386e-01  -5.3968276230022449e-01  -5.0170234077629661e-01  -4.6424185057541029e-01  -4.2725615419211976e-01  -3.9070722605622549e-01  -3.5456536517752807e-01  -3.1881163206058688e-01  -2.8344174633943470e-01  -2.4847022154518125e-01  -2.1392858560623013e-01  -1.7984533170851197e-01  -1.4623214310553917e-01  -1.1324390565857688e-01  -8.1394047727203614e-02  -5.0934196813570920e-02  -2.3026728537403965e-02  3.0222186349624638e-03  2.9784005820670194e-02  5.8753678929172604e-02  9.0820014632261789e-02  1.2663879619566781e-01  1.6522231969264733e-01  2.0559798462331977e-01  2.4714843209434170e-01  2.8950318122809882e-01  3.3243456163299073e-01  3.7579611017323372e-01  4.1948891654106424e-01  4.6344313181879920e-01  5.0760745791162920e-01  5.5194291517504224e-01  5.9641898590837317e-01  6.4101113094835438e-01  6.8569913125505144e-01  7.3046594299384093e-01  7.7529688218385129e-01  8.2017902627515149e-01  8.6510076121904278e-01  9.1005142711371589e-01  9.5502103042915953e-01  1.0000000000000000e+00  -2.0000000000000000e+00  -1.8423638446299422e+00  -1.7089825354676911e+00  -1.5935586091438316e+00  -1.4918761742979001e+00  -1.4009906117110578e+00  -1.3187706704136160e+00  -1.2436276414079042e+00  -1.1743479734765820e+00  -1.1099855915570813e+00  -1.0497901340346618e+00  -9.9315764120496075e-01  -9.3959576408799894e-01  -8.8869865121524461e-01  -8.4012845864773189e-01  -7.9360149936039071e-01  -7.4887771003505077e-01  -7.0575253419572426e-01  -6.6405059527356602e-01  -6.2362071684695697e-01  -5.8433197321600761e-01  -5.4607054235563823e-01  -5.0873719854029797e-01  -4.7224533247111594e-01  -4.3651942851127412e-01  -4.0149396571601653e-01  -3.6711274653117582e-01  -3.3332870741406634e-01  -3.0010436588859496e-01  -2.6741328758060684e-01  -2.3524343930435995e-01  -2.0360413295845123e-01  -1.7253898823888253e-01  -1.4214253613439806e-01  -1.1253616001504863e-01  -8.3718128472898237e-02  -5.5709962667087901e-02  -3.0676148504376811e-02  -7.7939601229752766e-03  1.4423660457049283e-02  3.6867699370131977e-02  6.1499583359616743e-02  8.9508528018247754e-02  1.2050255208717298e-01  1.5437949540031282e-01  1.9064290523450622e-01  2.2871349058800450e-01  2.6811935539322174e-01  3.0851803086678314e-01  3.4966854221833760e-01  3.9140057282097834e-01  4.3359138846614442e-01  4.7615031623715104e-01  5.1900860583614472e-01  5.6211279611102216e-01  6.0542030842509142e-01  6.4889645696749298e-01  6.9251237246136943e-01  7.3624352498744705e-01  7.8006864688084021e-01  8.2396892708828506e-01  8.6792739191032064e-01  9.1192841432719818e-01  9.5595731137576578e-01  1.0000000000000000e+00  -2.0000000000000000e+00  -1.8104072035246164e+00  -1.6554676709231886e+00  -1.5251169141477154e+00  -1.4129383725738454e+00  -1.3146273815460432e+00  -1.2271749310338915e+00  -1.1484056334604165e+00  -1.0767021971510826e+00  -1.0108337196179638e+00  -9.4984456899447667e-01  -8.9298009823792523e-01  -8.3963556334678491e-01  -7.8932012456651857e-01  -7.4163092657013829e-01  -6.9623408122688746e-01  -6.5285048275888624e-01  -6.1124507406660922e-01  -5.7121862348147412e-01  -5.3260135976765821e-01  -4.9524800689669468e-01  -4.5903389380678961e-01  -4.2385191020254964e-01  -3.8961015214734734e-01  -3.5623016037037264e-01  -3.2364570471916676e-01  -2.9180211046775123e-01  -2.6065615948952575e-01  -2.3017666465347428e-01  -2.0034602643166560e-01  -1.7116372279922729e-01  -1.4265449069689548e-01  -1.1488948465416784e-01  -8.8053106947156276e-02  -6.2570981775467632e-02  -3.8549337247515851e-02  -1.6775045053264815e-02  3.0976741498527651e-03  2.2723771921189549e-02  4.3104297411213487e-02  6.5127795893514320e-02  8.9838100229417073e-02  1.1727829769702858e-01  1.4730217029786954e-01  1.7973372808390428e-01  2.1425631525706035e-01  2.5049371710097029e-01  2.8809746802375741e-01  3.2678104462747443e-01  3.6632100355259817e-01  4.0654625042619780e-01  4.4732574826538379e-01  4.8855813882751598e-01  5.3016385308477632e-01  5.7207935500780960e-01  6.1425299471347738e-01  6.5664201603515637e-01  6.9921037663548657e-01  7.4192713761373785e-01  7.8476525326377755e-01  8.2770064328682791e-01  8.7071146500675678e-01  9.1377752690898995e-01  9.5687980074670531e-01  1.0000000000000000e+00  -2.0000000000000000e+00  -1.7804814993252209e+00  -1.6066746895970170e+00  -1.4639892659964144e+00  -1.3435820512856342e+00  -1.2397483390447113e+00  -1.1486247177957476e+00  -1.0674907882016318e+00  -9.9436892362370943e-01  -9.2778283076257639e-01  -8.6660557023455487e-01  -8.0996037813136934e-01  -7.5715391301407264e-01  -7.0763010995311659e-01  -6.6093752924773452e-01  -6.1670577955772554e-01  -5.7462818945668459e-01  -5.3444887507217942e-01  -4.9595296284562718e-01  -4.5895912028161212e-01  -4.2331380765871884e-01  -3.8888684027539500e-01  -3.5556797552226971e-01  -3.2326433337403143e-01  -2.9189853833737367e-01  -2.6140754477025785e-01  -2.3174217322926924e-01  -2.0286742589856172e-01  -1.7476366337861041e-01  -1.4742882469973059e-01  -1.2088236069351388e-01  -9.5172834136393353e-02  -7.0395276695872921e-02  -4.6678952688977635e-02  -2.5717830130758765e-02  -6.8031582038561933e-03  1.1133702359559912e-02  2.8773626570037847e-02  4.7485510320516053e-02  6.8146157619103545e-02  9.0701086563294731e-02  1.1544672396750864e-01  1.4246439224257998e-01  1.7169410332337237e-01  2.0299693138037431e-01  2.3615491060886071e-01  2.7090759453505886e-01  3.0699575497336301e-01  3.4418767606675882e-01  3.8228817693838274e-01  4.2113767706583105e-01  4.6060721534167653e-01  5.0059263772275275e-01  5.4100931266763519e-01  5.8178777612196242e-01  6.2287029938585126e-01  6.6420823582416821e-01  7.0575998043168298e-01  7.4748939556824012e-01  7.8936458527370434e-01  8.3135692778849191e-01  8.7344029792088862e-01  9.1559042755529962e-01  9.5778436470206618e-01  1.0000000000000000e+00  -2.0000000000000000e+00  -1.7524418969410762e+00  -1.5620512722813527e+00  -1.4090962304294861e+00  -1.2821759035160836e+00  -1.1741958550268015e+00  -1.0804851294633411e+00  -9.9782883505082287e-01  -9.2393362135032520e-01  -8.5711465544044363e-01  -7.9610336435702134e-01  -7.3992455774059906e-01  -6.8781519876330388e-01  -6.3916913112786344e-01  -5.9349851635559403e-01  -5.5040634028659841e-01  -5.0956644087961822e-01  -4.7070876593453997e-01  -4.3360834645556667e-01  -3.9807696524060643e-01  -3.6395682243224509e-01  -3.3111571584758981e-01  -2.9944340473170417e-01  -2.6884893982015307e-01  -2.3925884526325347e-01  -2.1061615327793834e-01  -1.8288043217622382e-01  -1.5602908307733415e-01  -1.3006026126406350e-01  -1.0499800830207233e-01  -8.0901639974751999e-02  -5.7886530415476971e-02  -3.6175963749387523e-02  -1.6888237555522091e-02  2.2964111496173430e-04  1.6715871543610480e-02  3.3445628381832515e-02  5.1043360929537818e-02  7.0298485171733260e-02  9.1293736181389945e-02  1.1408366877305245e-01  1.3878331683474279e-01  1.6543844398241053e-01  1.9401291937266540e-01  2.2440498350536003e-01  2.5645880126294934e-01  2.8998599545704140e-01  3.2479028126787673e-01  3.6068572772781532e-01  3.9750635106834353e-01  4.3510906555706652e-01  4.7337279831273849e-01  5.1219588405418348e-01  5.5149298374104938e-01  5.9119213742655341e-01  6.3123219088379778e-01  6.7156064744398269e-01  7.1213191369883788e-01  7.5290587895383410e-01  7.9384676447430780e-01  8.3492218467254653e-01  8.7610237133300595e-01  9.1735952068925408e-01  9.5866723050625979e-01  1.0000000000000000e+00  -2.0000000000000000e+00  -1.7261711676486831e+00  -1.5211492979911196e+00  -1.3595866981807196e+00  -1.2274695470787740e+00  -1.1163565726479903e+00  -1.0208271213831752e+00  -9.3722343654139384e-01  -8.6297798371254653e-01  -7.9622966994022815e-01  -7.3559311581517284e-01  -6.8001380454954186e-01  -6.2867377442888750e-01  -5.8092828748585079e-01  -5.3626215512228848e-01  -4.9425892310885955e-01  -4.5457869979230231e-01  -4.1694193839194066e-01  -3.8111741682147543e-01  -3.4691324490412001e-01  -3.1417010814190655e-01  -2.8275620976826210e-01  -2.5256354749108156e-01  -2.2350529256868323e-01  -1.9551416310394476e-01  -1.6854185789404236e-01  -1.4255992167576007e-01  -1.1756287733088115e-01  -9.3574983588901720e-02  -7.0663168609650481e-02  -4.8962624269845274e-02  -2.8784867727094755e-02  -1.0826275046112015e-02  5.2427769800951754e-03  2.0512765737689159e-02  3.6308511880363360e-02  5.3379885172617617e-02  7.1655703594547690e-02  9.1371333255489226e-02  1.1264663316167045e-01  1.3555653551278238e-01  1.6016443061599969e-01  1.8649314747965387e-01  2.1451414667951885e-01  2.4415128200545105e-01  2.7528931548053526e-01  3.0778730476228078e-01  3.4149364691328665e-01  3.7625860250828208e-01  4.1194243405010966e-01  4.4841943578135302e-01  4.8557902829802735e-01  5.2332511644019331e-01  5.6157460081582555e-01  6.0025559895940395e-01  6.3930567927880422e-01  6.7867024936912645e-01  7.1830114796585209e-01  7.5815544207395069e-01  7.9819440899714666e-01  8.3838267509438058e-01  8.7868748204933400e-01  9.1907805336245074e-01  9.5952503663371891e-01  1.0000000000000000e+00  -2.0000000000000000e+00  -1.7015684865984579e+00  -1.4835961086513223e+00  -1.3147762473494593e+00  -1.1784845864175473e+00  -1.0649957808382491e+00  -9.6820102366004068e-01  -8.8404878141139320e-01  -8.0973433692422236e-01  -7.4324780712434613e-01  -6.8310740317100116e-01  -6.2819452755526228e-01  -5.7764779729817584e-01  -5.3079266630293587e-01  -4.8709336343691123e-01  -4.4611927672057461e-01  -4.0752096021309736e-01  -3.7101271996580160e-01  -3.3635981110081592e-01  -3.0336894927582353e-01  -2.7188127232778048e-01  -2.4176717655208463e-01  -2.1292265258424306e-01  -1.8526689426715490e-01  -1.5874109130359620e-01  -1.3330854743709986e-01  -1.0895686474009446e-01  -8.5704338588994788e-02  -6.3615302183169908e-02  -4.2831699866503752e-02  -2.3739953196976308e-02  -6.7592881154386504e-03  8.5809240473621179e-03  2.3257758438364192e-02  3.8349551720162071e-02  5.4625525067536110e-02  7.2109696833726963e-02  9.0828235020546197e-02  1.1088451109400542e-01  1.3236492769702018e-01  1.5533140950040700e-01  1.7982472263681973e-01  2.0585556864068638e-01  2.3339923786030509e-01  2.6239668235639019e-01  2.9275987389145985e-01  3.2438026119825986e-01  3.5713839911470741e-01  3.9091260134191680e-01  4.2558534684246030e-01  4.6104721522020858e-01  4.9719876265782481e-01  5.3395095259273706e-01  5.7122470412265580e-01  6.0894997831643294e-01  6.4706467790288857e-01  6.8551352278786704e-01  7.2424698672149312e-01  7.6322033237897013e-01  8.0239275434594770e-01  8.4172662465849557e-01  8.8118682840749840e-01  9.2074017407749653e-01  9.6035486266616588e-01  1.0000000000000000e+00  -2.0000000000000000e+00  -1.6785439293046369e+00  -1.4490762766610601e+00  -1.2741055089456670e+00  -1.1344418084056109e+00  -1.0191495939076880e+00  -9.2149300262707790e-01  -8.3707173181407102e-01  -7.6287612973010821e-01  -6.9677059731514834e-01  -6.3719358040989438e-01  -5.8297454755564437e-01  -5.3321767437338485e-01  -4.8722533401763868e-01  -4.4444628099496319e-01  -4.0443967860751007e-01  -3.6684960106122438e-01  -3.3138665373703385e-01  -2.9781456118279681e-01  -2.6594032103473014e-01  -2.3560700558865924e-01  -2.0668862180119180e-01  -1.7908668051967588e-01  -1.5272831314836890e-01  -1.2756593388727933e-01  -1.0357869512885012e-01  -8.0776986629773131e-02  -5.9215349994050162e-02  -3.9026742530527347e-02  -2.0636204723433089e-02  -4.3371307544848841e-03  1.0457198790095067e-02  2.4712546100483648e-02  3.9355936074875822e-02  5.5002157637058784e-02  7.1734339835892100e-02  8.9605142074207958e-02  1.0866302855990467e-01  1.2897354840296613e-01  1.5059715703199789e-01  1.7357945215500575e-01  1.9794748179018581e-01  2.2370516658596701e-01  2.5083055376462493e-01  2.7927633566834492e-01  3.0897323653065401e-01  3.3983546702459144e-01  3.7176708700536648e-01  4.0466805690221747e-01  4.3843913675760621e-01  4.7298531559919621e-01  5.0821785452032586e-01  5.4405522715027421e-01  5.8042328476562788e-01  6.1725493228078332e-01  6.5448953122845122e-01  6.9207217715796010e-01  7.2995294375328357e-01  7.6808614637448880e-01  8.0642965134917832e-01  8.4494424078615538e-01  8.8359303284466773e-01  9.2234095187387066e-01  9.6115423995344884e-01  1.0000000000000000e+00  -2.0000000000000000e+00  -1.6570155919846827e+00  -1.4173193429314834e+00  -1.2371111489865902e+00  -1.0947111659466235e+00  -9.7805257958112035e-01  -8.7983087074640898e-01  -7.9533742409738195e-01  -7.2138545828608214e-01  -6.5573294114252312e-01  -5.9675212034007152e-01  -5.4323022866595949e-01  -4.9424404384565035e-01  -4.4907805405526191e-01  -4.0716943220384272e-01  -3.6807008133745772e-01  -3.3141989572886194e-01  -2.9692760695304377e-01  -2.6435690833874609e-01  -2.3351637045485943e-01  -2.0425219334322517e-01  -1.7644321906410332e-01  -1.4999794008471148e-01  -1.2485354972621476e-01  -1.0097741172393195e-01  -7.8371678124552424e-02  -5.7083232821679694e-02  -3.7230264766355305e-02  -1.9209891357734758e-02  -3.3226498187534322e-03  1.1075630334736335e-02  2.4989673856224685e-02  3.9283943071492758e-02  5.4451282123596692e-02  7.0568802917305162e-02  8.7704534564765499e-02  1.0591350306730810e-01  1.2524518874189855e-01  1.4574949692595632e-01  1.6747069987299951e-01  1.9044176029743259e-01  2.1468058578295091e-01  2.4018706214837077e-01  2.6694147494388282e-01  2.9490487002171017e-01  3.2402126953822025e-01  3.5422128336408537e-01  3.8542642497994900e-01  4.1755340250398060e-01  4.5051782768655102e-01  4.8423705589864419e-01  5.1863211267400799e-01  5.5362881672240638e-01  5.8915827550879829e-01  6.2515693481262102e-01  6.6156633757217298e-01  6.9833271086223903e-01  7.3540646475919214e-01  7.7274165801652273e-01  8.1029546389012108e-01  8.4802765429228044e-01  8.8590011031114624e-01  9.2387636061986977e-01  9.6192114527375860e-01  1.0000000000000000e+00  -2.0000000000000000e+00  -1.6369080022082068e+00  -1.3880911501011526e+00  -1.2034050643574146e+00  -1.0587765473546698e+00  -9.4108785675632234e-01  -8.4252040350666935e-01  -7.5809322710031446e-01  -6.8446627481815159e-01  -6.1930718158516695e-01  -5.6093307694316574e-01  -5.0809673250179799e-01  -4.5985308512262058e-01  -4.1547278112571273e-01  -3.7438440626351133e-01  -3.3613486449121366e-01  -3.0036161874391659e-01  -2.6677292450340301e-01  -2.3513361790729936e-01  -2.0525490390275355e-01  -1.7698717019160523e-01  -1.5021528496184658e-01  -1.2485626007521905e-01  -1.0085977269400623e-01  -7.8213140691590757e-02  -5.6954168646975695e-02  -3.7197612332368735e-02  -1.9270738695928758e-02  -3.5512902545081224e-03  1.0598821558567220e-02  2.4228445041550698e-02  3.8213255995596641e-02  5.2982270205666017e-02  6.8596446430713040e-02  8.5117237343799695e-02  1.0260149243855654e-01  1.2109914688836043e-01  1.4065472641442514e-01  1.6130855068596112e-01  1.8309438523661106e-01  2.0603630337877418e-01  2.3014603889581445e-01  2.5542102128068239e-01  2.8184341384082551e-01  3.0938039993639266e-01  3.3798568823643160e-01  3.6760197191358063e-01  3.9816392704636400e-01  4.2960130044720485e-01  4.6184171558597298e-01  4.9481296763482152e-01  5.2844472355465533e-01  5.6266965155654525e-01  5.9742406573453821e-01  6.3264819388872984e-01  6.6828617338538021e-01  7.0428586395963089e-01  7.4059854640472322e-01  7.7717855704228866e-01  8.1398289190250261e-01  8.5097080218169896e-01  8.8810339348776668e-01  9.2534323502070315e-01  9.6265398052171591e-01  1.0000000000000000e+00  -2.0000000000000000e+00  -1.6181511936959259e+00  -1.3611874629100023e+00  -1.1726590961673631e+00  -1.0262103996784901e+00  -9.0775185967109084e-01  -8.0900114833251158e-01  -7.2473674746680838e-01  -6.5148577502031380e-01  -5.8683899526981398e-01  -5.2906749969636391e-01  -4.7689586196824768e-01  -4.2936158929098278e-01  -3.8572465542526152e-01  -3.4540738291815554e-01  -3.0795342128409914e-01  -2.7299915385185192e-01  -2.4025345897006203e-01  -2.0948328054691862e-01  -1.8050340814325128e-01  -1.5316949390044565e-01  -1.2737381807666232e-01  -1.0304385222806317e-01  -8.0144723902982135e-02  -5.8689796384694036e-02  -3.8773893519098428e-02  -2.0687350460631086e-02  -4.9208206236186864e-03  9.1273890078071504e-03  2.2537958055956684e-02  3.6235817464540798e-02 