<?xml version="1.0"?>
<VTKFile type="UnstructuredGrid"  version="0.1"  >
<UnstructuredGrid>
<Piece  NumberOfPoints="441" NumberOfCells="800">
<Points>
<DataArray  type="Float64"  NumberOfComponents="3"  format="ascii">0 0 0  0.05 0 0  0.1 0 0  0.15 0 0  0.2 0 0  0.25 0 0  0.3 0 0  0.35 0 0  0.4 0 0  0.45 0 0  0.5 0 0  0.55 0 0  0.6 0 0  0.65 0 0  0.7 0 0  0.75 0 0  0.8 0 0  0.85 0 0  0.9 0 0  0.95 0 0  1 0 0  0 0.05 0  0.05 0.05 0  0.1 0.05 0  0.15 0.05 0  0.2 0.05 0  0.25 0.05 0  0.3 0.05 0  0.35 0.05 0  0.4 0.05 0  0.45 0.05 0  0.5 0.05 0  0.55 0.05 0  0.6 0.05 0  0.65 0.05 0  0.7 0.05 0  0.75 0.05 0  0.8 0.05 0  0.85 0.05 0  0.9 0.05 0  0.95 0.05 0  1 0.05 0  0 0.1 0  0.05 0.1 0  0.1 0.1 0  0.15 0.1 0  0.2 0.1 0  0.25 0.1 0  0.3 0.1 0  0.35 0.1 0  0.4 0.1 0  0.45 0.1 0  0.5 0.1 0  0.55 0.1 0  0.6 0.1 0  0.65 0.1 0  0.7 0.1 0  0.75 0.1 0  0.8 0.1 0  0.85 0.1 0  0.9 0.1 0  0.95 0.1 0  1 0.1 0  0 0.15 0  0.05 0.15 0  0.1 0.15 0  0.15 0.15 0  0.2 0.15 0  0.25 0.15 0  0.3 0.15 0  0.35 0.15 0  0.4 0.15 0  0.45 0.15 0  0.5 0.15 0  0.55 0.15 0  0.6 0.15 0  0.65 0.15 0  0.7 0.15 0  0.75 0.15 0  0.8 0.15 0  0.85 0.15 0  0.9 0.15 0  0.95 0.15 0  1 0.15 0  0 0.2 0  0.05 0.2 0  0.1 0.2 0  0.15 0.2 0  0.2 0.2 0  0.25 0.2 0  0.3 0.2 0  0.35 0.2 0  0.4 0.2 0  0.45 0.2 0  0.5 0.2 0  0.55 0.2 0  0.6 0.2 0  0.65 0.2 0  0.7 0.2 0  0.75 0.2 0  0.8 0.2 0  0.85 0.2 0  0.9 0.2 0  0.95 0.2 0  1 0.2 0  0 0.25 0  0.05 0.25 0  0.1 0.25 0  0.15 0.25 0  0.2 0.25 0  0.25 0.25 0  0.3 0.25 0  0.35 0.25 0  0.4 0.25 0  0.45 0.25 0  0.5 0.25 0  0.55 0.25 0  0.6 0.25 0  0.65 0.25 0  0.7 0.25 0  0.75 0.25 0  0.8 0.25 0  0.85 0.25 0  0.9 0.25 0  0.95 0.25 0  1 0.25 0  0 0.3 0  0.05 0.3 0  0.1 0.3 0  0.15 0.3 0  0.2 0.3 0  0.25 0.3 0  0.3 0.3 0  0.35 0.3 0  0.4 0.3 0  0.45 0.3 0  0.5 0.3 0  0.55 0.3 0  0.6 0.3 0  0.65 0.3 0  0.7 0.3 0  0.75 0.3 0  0.8 0.3 0  0.85 0.3 0  0.9 0.3 0  0.95 0.3 0  1 0.3 0  0 0.35 0  0.05 0.35 0  0.1 0.35 0  0.15 0.35 0  0.2 0.35 0  0.25 0.35 0  0.3 0.35 0  0.35 0.35 0  0.4 0.35 0  0.45 0.35 0  0.5 0.35 0  0.55 0.35 0  0.6 0.35 0  0.65 0.35 0  0.7 0.35 0  0.75 0.35 0  0.8 0.35 0  0.85 0.35 0  0.9 0.35 0  0.95 0.35 0  1 0.35 0  0 0.4 0  0.05 0.4 0  0.1 0.4 0  0.15 0.4 0  0.2 0.4 0  0.25 0.4 0  0.3 0.4 0  0.35 0.4 0  0.4 0.4 0  0.45 0.4 0  0.5 0.4 0  0.55 0.4 0  0.6 0.4 0  0.65 0.4 0  0.7 0.4 0  0.75 0.4 0  0.8 0.4 0  0.85 0.4 0  0.9 0.4 0  0.95 0.4 0  1 0.4 0  0 0.45 0  0.05 0.45 0  0.1 0.45 0  0.15 0.45 0  0.2 0.45 0  0.25 0.45 0  0.3 0.45 0  0.35 0.45 0  0.4 0.45 0  0.45 0.45 0  0.5 0.45 0  0.55 0.45 0  0.6 0.45 0  0.65 0.45 0  0.7 0.45 0  0.75 0.45 0  0.8 0.45 0  0.85 0.45 0  0.9 0.45 0  0.95 0.45 0  1 0.45 0  0 0.5 0  0.05 0.5 0  0.1 0.5 0  0.15 0.5 0  0.2 0.5 0  0.25 0.5 0  0.3 0.5 0  0.35 0.5 0  0.4 0.5 0  0.45 0.5 0  0.5 0.5 0  0.55 0.5 0  0.6 0.5 0  0.65 0.5 0  0.7 0.5 0  0.75 0.5 0  0.8 0.5 0  0.85 0.5 0  0.9 0.5 0  0.95 0.5 0  1 0.5 0  0 0.55 0  0.05 0.55 0  0.1 0.55 0  0.15 0.55 0  0.2 0.55 0  0.25 0.55 0  0.3 0.55 0  0.35 0.55 0  0.4 0.55 0  0.45 0.55 0  0.5 0.55 0  0.55 0.55 0  0.6 0.55 0  0.65 0.55 0  0.7 0.55 0  0.75 0.55 0  0.8 0.55 0  0.85 0.55 0  0.9 0.55 0  0.95 0.55 0  1 0.55 0  0 0.6 0  0.05 0.6 0  0.1 0.6 0  0.15 0.6 0  0.2 0.6 0  0.25 0.6 0  0.3 0.6 0  0.35 0.6 0  0.4 0.6 0  0.45 0.6 0  0.5 0.6 0  0.55 0.6 0  0.6 0.6 0  0.65 0.6 0  0.7 0.6 0  0.75 0.6 0  0.8 0.6 0  0.85 0.6 0  0.9 0.6 0  0.95 0.6 0  1 0.6 0  0 0.65 0  0.05 0.65 0  0.1 0.65 0  0.15 0.65 0  0.2 0.65 0  0.25 0.65 0  0.3 0.65 0  0.35 0.65 0  0.4 0.65 0  0.45 0.65 0  0.5 0.65 0  0.55 0.65 0  0.6 0.65 0  0.65 0.65 0  0.7 0.65 0  0.75 0.65 0  0.8 0.65 0  0.85 0.65 0  0.9 0.65 0  0.95 0.65 0  1 0.65 0  0 0.7 0  0.05 0.7 0  0.1 0.7 0  0.15 0.7 0  0.2 0.7 0  0.25 0.7 0  0.3 0.7 0  0.35 0.7 0  0.4 0.7 0  0.45 0.7 0  0.5 0.7 0  0.55 0.7 0  0.6 0.7 0  0.65 0.7 0  0.7 0.7 0  0.75 0.7 0  0.8 0.7 0  0.85 0.7 0  0.9 0.7 0  0.95 0.7 0  1 0.7 0  0 0.75 0  0.05 0.75 0  0.1 0.75 0  0.15 0.75 0  0.2 0.75 0  0.25 0.75 0  0.3 0.75 0  0.35 0.75 0  0.4 0.75 0  0.45 0.75 0  0.5 0.75 0  0.55 0.75 0  0.6 0.75 0  0.65 0.75 0  0.7 0.75 0  0.75 0.75 0  0.8 0.75 0  0.85 0.75 0  0.9 0.75 0  0.95 0.75 0  1 0.75 0  0 0.8 0  0.05 0.8 0  0.1 0.8 0  0.15 0.8 0  0.2 0.8 0  0.25 0.8 0  0.3 0.8 0  0.35 0.8 0  0.4 0.8 0  0.45 0.8 0  0.5 0.8 0  0.55 0.8 0  0.6 0.8 0  0.65 0.8 0  0.7 0.8 0  0.75 0.8 0  0.8 0.8 0  0.85 0.8 0  0.9 0.8 0  0.95 0.8 0  1 0.8 0  0 0.85 0  0.05 0.85 0  0.1 0.85 0  0.15 0.85 0  0.2 0.85 0  0.25 0.85 0  0.3 0.85 0  0.35 0.85 0  0.4 0.85 0  0.45 0.85 0  0.5 0.85 0  0.55 0.85 0  0.6 0.85 0  0.65 0.85 0  0.7 0.85 0  0.75 0.85 0  0.8 0.85 0  0.85 0.85 0  0.9 0.85 0  0.95 0.85 0  1 0.85 0  0 0.9 0  0.05 0.9 0  0.1 0.9 0  0.15 0.9 0  0.2 0.9 0  0.25 0.9 0  0.3 0.9 0  0.35 0.9 0  0.4 0.9 0  0.45 0.9 0  0.5 0.9 0  0.55 0.9 0  0.6 0.9 0  0.65 0.9 0  0.7 0.9 0  0.75 0.9 0  0.8 0.9 0  0.85 0.9 0  0.9 0.9 0  0.95 0.9 0  1 0.9 0  0 0.95 0  0.05 0.95 0  0.1 0.95 0  0.15 0.95 0  0.2 0.95 0  0.25 0.95 0  0.3 0.95 0  0.35 0.95 0  0.4 0.95 0  0.45 0.95 0  0.5 0.95 0  0.55 0.95 0  0.6 0.95 0  0.65 0.95 0  0.7 0.95 0  0.75 0.95 0  0.8 0.95 0  0.85 0.95 0  0.9 0.95 0  0.95 0.95 0  1 0.95 0  0 1 0  0.05 1 0  0.1 1 0  0.15 1 0  0.2 1 0  0.25 1 0  0.3 1 0  0.35 1 0  0.4 1 0  0.45 1 0  0.5 1 0  0.55 1 0  0.6 1 0  0.65 1 0  0.7 1 0  0.75 1 0  0.8 1 0  0.85 1 0  0.9 1 0  0.95 1 0  1 1 0  </DataArray>
</Points>
<Cells>
[...]
<PointData  Scalars="f_6"> 
<DataArray  type="Float64"  Name="f_6"  format="ascii">-2.0000000000000000e+00  -1.8499999999999999e+00  -1.7000000000000000e+00  -1.5500000000000000e+00  -1.4000000000000001e+00  -1.2500000000000000e+00  -1.0999999999999999e+00  -9.5000000000000007e-01  -7.9999999999999993e-01  -6.5000000000000013e-01  -5.0000000000000000e-01  -3.4999999999999987e-01  -2.0000000000000007e-01  -4.9999999999999933e-02  9.9999999999999867e-02  2.5000000000000000e-01  4.0000000000000013e-01  5.4999999999999993e-01  7.0000000000000007e-01  8.4999999999999987e-01  1.0000000000000000e+00  -2.0000000000000000e+00  -1.4993206762009434e+00  -1.2160728017026876e+00  -1.0136216308244050e+00  -8.5156508273466736e-01  -7.0953477390211783e-01  -5.7735267054178308e-01  -4.5039674031504101e-01  -3.2713525776589725e-01  -2.0830865073192736e-01  -9.4373417103829557e-02  1.3200824786558990e-02  1.1054026076893653e-01  1.8986702417089221e-01  2.7473691239845571e-01  3.7544222374434283e-01  4.9111454680539646e-01  6.1410871891665164e-01  7.4102424663310051e-01  8.7004552751193975e-01  1.0000000000000000e+00  -2.0000000000000000e+00  -1.2522706602523412e+00  -8.7482758960837803e-01  -6.2884297802733324e-01  -4.5287164057637019e-01  -3.1494338636859803e-01  -1.9700715246769998e-01  -9.0337313466511152e-02  8.3755972729751896e-03  9.8971366571643710e-02  1.7947762003720819e-01  2.5034615345801126e-01  3.1202536769025563e-01  3.5923062805306183e-01  4.1399751722738604e-01  4.8591743577351942e-01  5.7490724456059106e-01  6.7429608222810999e-01  7.7994274010381048e-01  8.8915786341465908e-01  1.0000000000000000e+00  -2.0000000000000000e+00  -1.0624341941662883e+00  -6.0833426194945917e-01  -3.3258765453240569e-01  -1.5069311286837556e-01  -1.9743377772760803e-02  8.3624701689929526e-02  1.7101947824214650e-01  2.4737612707557072e-01  3.1402411033336963e-01  3.7090974538522070e-01  4.1874961936433081e-01  4.5858083550117756e-01  4.8876849208689560e-01  5.2633383800232325e-01  5.7932275756175788e-01  6.4830091343533791e-01  7.2822562533138757e-01  8.1529276813937235e-01  9.0664318604288663e-01  1.0000000000000000e+00  -2.0000000000000000e+00  -9.1381694498979071e-01  -4.0145557187906467e-01  -1.0452915035120942e-01  7.8630365484337161e-02  2.0109044091557973e-01  2.9071417441129122e-01  3.6148909117288758e-01  4.1990983192094183e-01  4.6870738053975203e-01  5.0913582281794934e-01  5.4231403956765423e-01  5.6921477172715362e-01  5.8968710301695404e-01  6.1666212276948340e-01  6.5673884303585106e-01  7.1074802628761558e-01  7.7501273752273014e-01  8.4635952107940482e-01  9.2212211261751464e-01  1.0000000000000000e+00  -2.0000000000000000e+00  -7.9757915782583522e-01  -2.4136261936540315e-01  7.0209559992330556e-02  2.5253989195606180e-01  3.6668769223136538e-01  4.4443976602140023e-01  5.0185200402467789e-01  5.4672477571802269e-01  5.8277583688653589e-01  6.1194612795223113e-01  6.3554186447570160e-01  6.5450558096823597e-01  6.6911603581607670e-01  6.8923260699450184e-01  7.2022246552454749e-01  7.6293961115654330e-01  8.1471777739251261e-01  8.7301046603800225e-01  9.3548574334776857e-01  1.0000000000000000e+00  -2.0000000000000000e+00  -7.0699872962281529e-01  -1.1771976762180975e-01  2.0398392475598337e-01  3.8461563349032662e-01  4.9147553125199767e-01  5.5958475511670347e-01  6.0670632804318425e-01  6.4163188169892860e-01  6.6869758863112738e-01  6.9017096823188417e-01  7.0740723326595767e-01  7.2128394858223333e-01  7.3213367792969508e-01  7.4758431402509096e-01  7.7197880091129423e-01  8.0607017542149739e-01  8.4790829485277452e-01  8.9547882233232323e-01  9.4681039473555739e-01  1.0000000000000000e+00  -2.0000000000000000e+00  -6.3655266066148097e-01  -2.2257722501955821e-02  3.0655200776815961e-01  4.8528976439461191e-01  5.8615098917556130e-01  6.4672765390669207e-01  6.8612064877173540e-01  7.1383334738879489e-01  7.3457017996332774e-01  7.5073676477083195e-01  7.6366353134743636e-01  7.7413587968059894e-01  7.8243640827305705e-01  7.9456801897608009e-01  8.1403824867404162e-01  8.4145399476537797e-01  8.7536640426476464e-01  9.1418613370295976e-01  9.5627701326213732e-01  1.0000000000000000e+00  -2.0000000000000000e+00  -5.8175737611236089e-01  5.1553825342429381e-02  3.8544410552445124e-01  5.6242834074677539e-01  6.5853938895655573e-01  7.1337003905620400e-01  7.4703526928089126e-01  7.6953488348791954e-01  7.8578667954200832e-01  7.9824055605350586e-01  8.0817186690408171e-01  8.1627294095428460e-01  8.2276500308464717e-01  8.3244651404069347e-01  8.4815218004341364e-01  8.7034115070120810e-01  8.9791719373794654e-01  9.2962229495261373e-01  9.6411152461003280e-01  1.0000000000000000e+00  -2.0000000000000000e+00  -5.3905412778452466e-01  1.0878742718575032e-01  4.4638258056625046e-01  6.2188354343118124e-01  7.1432181631536296e-01  7.6482779551059987e-01  7.9427082993960452e-01  8.1299257353294807e-01  8.2603237046820643e-01  8.3584127935439334e-01  8.4363454030315144e-01  8.5002554147291731e-01  8.5518795868519226e-01  8.6300826077032722e-01  8.7578280675771192e-01  8.9384123425809414e-01  9.1633892503319969e-01  9.4227432775951625e-01  9.7054679022538015e-01  1.0000000000000000e+00  -2.0000000000000000e+00  -5.0567194658908587e-01  1.5332580188177594e-01  4.9366767685495083e-01  6.6797446267395011e-01  7.5761279026726969e-01  8.0488502386353278e-01  8.3121611154611719e-01  8.4718245243305790e-01  8.5789206536077545e-01  8.6578040429532754e-01  8.7200943843273737e-01  8.7713178441815465e-01  8.8129021262454843e-01  8.8766719149399009e-01  8.9812955195901290e-01  9.1290205454025741e-01  9.3132294437724183e-01  9.5258930082687177e-01  9.7580130853197133e-01  1.0000000000000000e+00  -2.0000000000000000e+00  -4.7948452112573908e-01  1.8810647768807337e-01  5.3050539026414156e-01  7.0387606595665775e-01  7.9139659526327988e-01  8.3625647403332870e-01  8.6028745839489640e-01  8.7422770143451800e-01  8.8322423894250890e-01  8.8969306663173953e-01  8.9475361789441055e-01  8.9891437087286752e-01  9.0230047622605536e-01  9.0754288163284991e-01  9.1616615504409327e-01  9.2831448756668122e-01  9.4346149710863858e-01  9.6095862263875775e-01  9.8006914307563320e-01  1.0000000000000000e+00  -2.0000000000000000e+00  -4.5887873225006820e-01  2.1533039328539122e-01  5.5927150351560373e-01  7.3191868156029360e-01  8.1784593396759298e-01  8.6090814384367342e-01  8.8323336351725479e-01  8.9567215594781335e-01  9.0339450706499613e-01  9.0879885145414585e-01  9.1297279265927611e-01  9.1639395471890583e-01  9.1917903610974538e-01  9.2352287067081662e-01  9.3067769901782949e-01  9.4072824357373575e-01  9.5324993385187373e-01  9.6771454954388925e-01  9.8351664113180304e-01  1.0000000000000000e+00  -2.0000000000000000e+00  -4.4264506331304976e-01  2.3662847935323744e-01  5.8171500582054703e-01  7.5381087891336929e-01  8.3854966647400675e-01  8.8027729156645762e-01  9.0133631987288154e-01  9.1265686054847162e-01  9.1942383605439715e-01  9.2402222874943318e-01  9.2751699879189453e-01  9.3036483013638949e-01  9.3267977532565105e-01  9.3631059696541463e-01  9.4229352678267231e-01  9.5067085385855910e-01  9.6109544518123213e-01  9.7313300055312291e-01  9.8628287190768948e-01  1.0000000000000000e+00  -2.0000000000000000e+00  -4.2989515557775554e-01  2.5318573007771833e-01  5.9910890201332379e-01  7.7080167647881970e-01  8.5467368509282149e-01  8.9542296254532283e-01  9.1554720749690077e-01  9.2603541327941585e-01  9.3208454218738757e-01  9.3607089620854955e-01  9.3904417538365725e-01  9.4144725945502028e-01  9.4339495224172221e-01  9.4646218932875892e-01  9.5151495728888569e-01  9.5856619989659653e-01  9.6732799246137346e-01  9.7743913557968121e-01  9.8848184594583233e-01  1.0000000000000000e+00  -2.0000000000000000e+00  -4.2001060321502087e-01  2.6582556276571107e-01  6.1235918699081837e-01  7.8379801120156023e-01  8.6707463708271959e-01  9.0712941246922074e-01  9.2657554153554822e-01  9.3645039313925527e-01  9.4196376826441097e-01  9.4548815285782861e-01  9.4806374891699652e-01  9.5012463235476552e-01  9.5178808383457703e-01  9.5441470179276611e-01  9.5873791314751555e-01  9.6475099597756842e-01  9.7221118918798410e-01  9.8081370335839635e-01  9.9020537629595951e-01  1.0000000000000000e+00  -2.0000000000000000e+00  -4.1262655888690436e-01  2.7506308266849289e-01  6.2208705831604538e-01  7.9345325292229907e-01  8.7638216325010554e-01  9.1597811712974730e-01  9.3495077382767011e-01  9.4438468693440503e-01  9.4950616080485672e-01  9.5268859283708907e-01  9.5496709960319093e-01  9.5677028969152111e-01  9.5821835455031290e-01  9.6050774992655619e-01  9.6427099753084233e-01  9.6948868167817670e-01  9.7595206495459830e-01  9.8339911236996047e-01  9.9152595587960923e-01  1.0000000000000000e+00  -2.0000000000000000e+00  -4.0762963625065940e-01  2.8116011802640989e-01  6.2871047379001477e-01  8.0024342136471216e-01  8.8306174966862705e-01  9.2239895625743684e-01  9.4106435824083046e-01  9.5019624819739179e-01  9.5504275115847581e-01  9.5798247726633967e-01  9.6004879985159808e-01  9.6166686984357796e-01  9.6295883143508532e-01  9.6500002013912833e-01  9.6834964537112023e-01  9.7298066824969787e-01  9.7870927658227203e-01  9.8530472528723778e-01  9.9249933485251729e-01  1.0000000000000000e+00  -2.0000000000000000e+00  -4.0494622019842103e-01  2.8429940149988164e-01  6.3257092839818985e-01  8.0454652287545714e-01  8.8746547883316551e-01  9.2670671256653203e-01  9.4519850767047209e-01  9.5414160872094689e-01  9.5881034683315203e-01  9.6159185627079757e-01  9.6352053787625791e-01  9.6501954676547730e-01  9.6621022853534022e-01  9.6808178195763894e-01  9.7114689556481237e-01  9.7537506936722340e-01  9.8059964783755471e-01  9.8661117734420245e-01  9.9316665824322192e-01  1.0000000000000000e+00  -2.0000000000000000e+00  -4.0259166619696007e-01  2.8517163121397426e-01  6.3414468262459411e-01  8.0672208248921606e-01  8.8986812696238660e-01  9.2912433356202617e-01  9.4754490012223691e-01  9.5639171286904368e-01  9.6096457970797522e-01  9.6366051848752310e-01  9.6551800090091444e-01  9.6696210302713181e-01  9.6811245777534216e-01  9.6988423194678708e-01  9.7278108556326748e-01  9.7677306581682877e-01  9.8170306805652174e-01  9.8737367800879539e-01  9.9355612077616839e-01  1.0000000000000000e+00  -2.0000000000000000e+00  -3.8385137696365285e-01  2.8583505068734882e-01  6.3415655232420765e-01  8.0712341569715473e-01  8.9046996577872961e-01  9.2979030061782164e-01  9.4821500548192328e-01  9.5704296327078087e-01  9.6159015894005595e-01  9.6426122333846676e-01  9.6610063606729346e-01  9.6754582803879630e-01  9.6876071290752719e-01  9.7048538429172859e-01  9.7332014892464136e-01  9.7723304028030178e-01  9.8206588056290833e-01  9.8762434585828895e-01  9.9368414685265660e-01  1.0000000000000000e+00  </DataArray> 
</PointData> 
</Piece>
</UnstructuredGrid>
</VTKFile>